 Entering Gaussian System, Link 0=g16
 Initial command:
 /opt/GAUSSIAN/g16/l1.exe "/scratch/273564/Gau-5114.inp" -scrdir="/scratch/273564/"
 Entering Link 1 = /opt/GAUSSIAN/g16/l1.exe PID=      5121.
  
 Copyright (c) 1988-2017, Gaussian, Inc.  All Rights Reserved.
  
 This is part of the Gaussian(R) 16 program.  It is based on
 the Gaussian(R) 09 system (copyright 2009, Gaussian, Inc.),
 the Gaussian(R) 03 system (copyright 2003, Gaussian, Inc.),
 the Gaussian(R) 98 system (copyright 1998, Gaussian, Inc.),
 the Gaussian(R) 94 system (copyright 1995, Gaussian, Inc.),
 the Gaussian 92(TM) system (copyright 1992, Gaussian, Inc.),
 the Gaussian 90(TM) system (copyright 1990, Gaussian, Inc.),
 the Gaussian 88(TM) system (copyright 1988, Gaussian, Inc.),
 the Gaussian 86(TM) system (copyright 1986, Carnegie Mellon
 University), and the Gaussian 82(TM) system (copyright 1983,
 Carnegie Mellon University). Gaussian is a federally registered
 trademark of Gaussian, Inc.
  
 This software contains proprietary and confidential information,
 including trade secrets, belonging to Gaussian, Inc.
  
 This software is provided under written license and may be
 used, copied, transmitted, or stored only in accord with that
 written license.
  
 The following legend is applicable only to US Government
 contracts under FAR:
  
                    RESTRICTED RIGHTS LEGEND
  
 Use, reproduction and disclosure by the US Government is
 subject to restrictions as set forth in subparagraphs (a)
 and (c) of the Commercial Computer Software - Restricted
 Rights clause in FAR 52.227-19.
  
 Gaussian, Inc.
 340 Quinnipiac St., Bldg. 40, Wallingford CT 06492
  
  
 ---------------------------------------------------------------
 Warning -- This program may not be used in any manner that
 competes with the business of Gaussian, Inc. or will provide
 assistance to any competitor of Gaussian, Inc.  The licensee
 of this program is prohibited from giving any competitor of
 Gaussian, Inc. access to this program.  By using this program,
 the user acknowledges that Gaussian, Inc. is engaged in the
 business of creating and licensing software in the field of
 computational chemistry and represents and warrants to the
 licensee that it is not a competitor of Gaussian, Inc. and that
 it will not use this program in any manner prohibited above.
 ---------------------------------------------------------------
  

 Cite this work as:
 Gaussian 16, Revision B.01,
 M. J. Frisch, G. W. Trucks, H. B. Schlegel, G. E. Scuseria, 
 M. A. Robb, J. R. Cheeseman, G. Scalmani, V. Barone, 
 G. A. Petersson, H. Nakatsuji, X. Li, M. Caricato, A. V. Marenich, 
 J. Bloino, B. G. Janesko, R. Gomperts, B. Mennucci, H. P. Hratchian, 
 J. V. Ortiz, A. F. Izmaylov, J. L. Sonnenberg, D. Williams-Young, 
 F. Ding, F. Lipparini, F. Egidi, J. Goings, B. Peng, A. Petrone, 
 T. Henderson, D. Ranasinghe, V. G. Zakrzewski, J. Gao, N. Rega, 
 G. Zheng, W. Liang, M. Hada, M. Ehara, K. Toyota, R. Fukuda, 
 J. Hasegawa, M. Ishida, T. Nakajima, Y. Honda, O. Kitao, H. Nakai, 
 T. Vreven, K. Throssell, J. A. Montgomery, Jr., J. E. Peralta, 
 F. Ogliaro, M. J. Bearpark, J. J. Heyd, E. N. Brothers, K. N. Kudin, 
 V. N. Staroverov, T. A. Keith, R. Kobayashi, J. Normand, 
 K. Raghavachari, A. P. Rendell, J. C. Burant, S. S. Iyengar, 
 J. Tomasi, M. Cossi, J. M. Millam, M. Klene, C. Adamo, R. Cammi, 
 J. W. Ochterski, R. L. Martin, K. Morokuma, O. Farkas, 
 J. B. Foresman, and D. J. Fox, Gaussian, Inc., Wallingford CT, 2016.
 
 ******************************************
 Gaussian 16:  ES64L-G16RevB.01 20-Dec-2017
                24-Mar-2022 
 ******************************************
 %nosave
 %nproc=8
 Will use up to    8 processors via shared memory.
 %mem=8gb
 %chk=input
 --------------------------------------
 #P opt B97D3/aug-cc-pvtz freq(noraman)
 --------------------------------------
 1/18=20,19=15,26=3,38=1/1,3;
 2/9=110,12=2,17=6,18=5,40=1/2;
 3/5=16,6=1,7=10,11=2,25=1,30=1,71=1,74=-59/1,2,3;
 4//1;
 5/5=2,38=5/2;
 6/7=2,8=2,9=2,10=2,28=1/1;
 7//1,2,3,16;
 1/18=20,19=15,26=3/3(2);
 2/9=110/2;
 99//99;
 2/9=110/2;
 3/5=16,6=1,7=10,11=2,25=1,30=1,71=1,74=-59/1,2,3;
 4/5=5,16=3,69=1/1;
 5/5=2,38=5/2;
 7//1,2,3,16;
 1/18=20,19=15,26=3/3(-5);
 2/9=110/2;
 6/7=2,8=2,9=2,10=2,19=2,28=1/1;
 99/9=1/99;
 Leave Link    1 at Thu Mar 24 10:25:39 2022, MaxMem=  1073741824 cpu:               0.8 elap:               0.1
 (Enter /opt/GAUSSIAN/g16/l101.exe)
 -----
 Title
 -----
 Symbolic Z-matrix:
 Charge =  0 Multiplicity = 1
 N                     14.65701   6.8539   -3.54134 
 H                     14.44028   7.11925  -4.49426 
 H                     14.50731   5.85572  -3.45883 
 H                     15.64259   7.02987  -3.38972 
 
 ITRead=  0  0  0  0
 MicOpt= -1 -1 -1 -1
 NAtoms=      4 NQM=        4 NQMF=       0 NMMI=      0 NMMIF=      0
                NMic=       0 NMicF=      0.
                    Isotopes and Nuclear Properties:
 (Nuclear quadrupole moments (NQMom) in fm**2, nuclear magnetic moments (NMagM)
  in nuclear magnetons)

  Atom         1           2           3           4
 IAtWgt=          14           1           1           1
 AtmWgt=  14.0030740   1.0078250   1.0078250   1.0078250
 NucSpn=           2           1           1           1
 AtZEff=  -0.0000000  -0.0000000  -0.0000000  -0.0000000
 NQMom=    2.0440000   0.0000000   0.0000000   0.0000000
 NMagM=    0.4037610   2.7928460   2.7928460   2.7928460
 AtZNuc=   7.0000000   1.0000000   1.0000000   1.0000000
 Leave Link  101 at Thu Mar 24 10:25:41 2022, MaxMem=  1073741824 cpu:               5.3 elap:               0.9
 (Enter /opt/GAUSSIAN/g16/l103.exe)

 GradGradGradGradGradGradGradGradGradGradGradGradGradGradGradGradGradGrad
 Berny optimization.
 Initialization pass.
                           ----------------------------
                           !    Initial Parameters    !
                           ! (Angstroms and Degrees)  !
 --------------------------                            --------------------------
 ! Name  Definition              Value          Derivative Info.                !
 --------------------------------------------------------------------------------
 ! R1    R(1,2)                  1.0126         estimate D2E/DX2                !
 ! R2    R(1,3)                  1.0127         estimate D2E/DX2                !
 ! R3    R(1,4)                  1.0126         estimate D2E/DX2                !
 ! A1    A(2,1,3)              107.6562         estimate D2E/DX2                !
 ! A2    A(2,1,4)              107.679          estimate D2E/DX2                !
 ! A3    A(3,1,4)              107.636          estimate D2E/DX2                !
 ! D1    D(2,1,4,3)           -115.8088         estimate D2E/DX2                !
 --------------------------------------------------------------------------------
 Trust Radius=3.00D-01 FncErr=1.00D-07 GrdErr=1.00D-06 EigMax=2.50D+02 EigMin=1.00D-04
 Number of steps in this run=     20 maximum allowed number of steps=    100.
 GradGradGradGradGradGradGradGradGradGradGradGradGradGradGradGradGradGrad

 Leave Link  103 at Thu Mar 24 10:25:42 2022, MaxMem=  1073741824 cpu:               0.8 elap:               0.6
 (Enter /opt/GAUSSIAN/g16/l202.exe)
                          Input orientation:                          
 ---------------------------------------------------------------------
 Center     Atomic      Atomic             Coordinates (Angstroms)
 Number     Number       Type             X           Y           Z
 ---------------------------------------------------------------------
      1          7           0       14.657011    6.853900   -3.541335
      2          1           0       14.440280    7.119247   -4.494259
      3          1           0       14.507314    5.855718   -3.458828
      4          1           0       15.642594    7.029872   -3.389716
 ---------------------------------------------------------------------
                    Distance matrix (angstroms):
                    1          2          3          4
     1  N    0.000000
     2  H    1.012643   0.000000
     3  H    1.012711   1.634967   0.000000
     4  H    1.012585   1.635103   1.634709   0.000000
 Stoichiometry    H3N
 Framework group  C1[X(H3N)]
 Deg. of freedom     6
 Full point group                 C1      NOp   1
 Largest Abelian subgroup         C1      NOp   1
 Largest concise Abelian subgroup C1      NOp   1
                         Standard orientation:                         
 ---------------------------------------------------------------------
 Center     Atomic      Atomic             Coordinates (Angstroms)
 Number     Number       Type             X           Y           Z
 ---------------------------------------------------------------------
      1          7           0       -0.000040   -0.000055   -0.110005
      2          1           0       -0.929734   -0.163126    0.256768
      3          1           0        0.323586    0.886782    0.256561
      4          1           0        0.606430   -0.723272    0.256709
 ---------------------------------------------------------------------
 Rotational constants (GHZ):         300.6579062         300.5218964         187.6011992
 Leave Link  202 at Thu Mar 24 10:25:43 2022, MaxMem=  1073741824 cpu:               1.5 elap:               0.3
 (Enter /opt/GAUSSIAN/g16/l301.exe)
 Standard basis: Aug-CC-pVTZ (5D, 7F)
 Ernie: Thresh=  0.10000D-02 Tol=  0.10000D-05 Strict=F.
 Ernie:  3 primitive shells out of 63 were deleted.
 There are   130 symmetry adapted cartesian basis functions of A   symmetry.
 There are   115 symmetry adapted basis functions of A   symmetry.
   115 basis functions,   153 primitive gaussians,   130 cartesian basis functions
     5 alpha electrons        5 beta electrons
       nuclear repulsion energy        11.9449525346 Hartrees.
 IExCor= 3630 DFT=T Ex+Corr=B97D3 ExCW=0 ScaHFX=  0.000000
 ScaDFX=  1.000000  1.000000  1.000000  1.000000 ScalE2=  1.000000  1.000000
 IRadAn=      5 IRanWt=     -1 IRanGd=            0 ICorTp=0 IEmpDi=141
 NAtoms=    4 NActive=    4 NUniq=    4 SFac= 1.00D+00 NAtFMM=   60 NAOKFM=F Big=F
 Integral buffers will be    131072 words long.
 Raffenetti 2 integral format.
 Two-electron integral symmetry is turned on.
 R6Disp:  Grimme-D3(BJ) Dispersion energy=       -0.0026832381 Hartrees.
 Nuclear repulsion after empirical dispersion term =       11.9422692965 Hartrees.
 Leave Link  301 at Thu Mar 24 10:25:45 2022, MaxMem=  1073741824 cpu:               7.6 elap:               1.5
 (Enter /opt/GAUSSIAN/g16/l302.exe)
 NPDir=0 NMtPBC=     1 NCelOv=     1 NCel=       1 NClECP=     1 NCelD=      1
         NCelK=      1 NCelE2=     1 NClLst=     1 CellRange=     0.0.
 One-electron integrals computed using PRISM.
 One-electron integral symmetry used in STVInt
 NBasis=   115 RedAO= T EigKep=  2.71D-04  NBF=   115
 NBsUse=   115 1.00D-06 EigRej= -1.00D+00 NBFU=   115
 Precomputing XC quadrature grid using
 IXCGrd= 4 IRadAn=           5 IRanWt=          -1 IRanGd=           0 AccXCQ= 0.00D+00.
 Generated NRdTot=       0 NPtTot=           0 NUsed=           0 NTot=          32
 NSgBfM=   130   130   130   130   130 MxSgAt=     4 MxSgA2=     4.
 Leave Link  302 at Thu Mar 24 10:25:49 2022, MaxMem=  1073741824 cpu:              19.7 elap:               4.2
 (Enter /opt/GAUSSIAN/g16/l303.exe)
 DipDrv:  MaxL=1.
 Leave Link  303 at Thu Mar 24 10:25:53 2022, MaxMem=  1073741824 cpu:               2.0 elap:               1.9
 (Enter /opt/GAUSSIAN/g16/l401.exe)
 ExpMin= 2.53D-02 ExpMax= 1.14D+04 ExpMxC= 3.89D+02 IAcc=3 IRadAn=         5 AccDes= 0.00D+00
 Harris functional with IExCor= 3630 and IRadAn=       5 diagonalized for initial guess.
 HarFok:  IExCor= 3630 AccDes= 0.00D+00 IRadAn=         5 IDoV= 1 UseB2=F ITyADJ=14
 ICtDFT=  3500011 ScaDFX=  1.000000  1.000000  1.000000  1.000000
 FoFCou: FMM=F IPFlag=           0 FMFlag=      100000 FMFlg1=           0
         NFxFlg=           0 DoJE=T BraDBF=F KetDBF=T FulRan=T
         wScrn=  0.000000 ICntrl=       500 IOpCl=  0 I1Cent=   200000004 NGrid=           0
         NMat0=    1 NMatS0=      1 NMatT0=    0 NMatD0=    1 NMtDS0=    0 NMtDT0=    0
 Petite list used in FoFCou.
 Harris En= -56.6009195668666    
 JPrj=0 DoOrth=F DoCkMO=F.
 Leave Link  401 at Thu Mar 24 10:25:57 2022, MaxMem=  1073741824 cpu:              17.8 elap:               4.0
 (Enter /opt/GAUSSIAN/g16/l502.exe)
 Keep J ints in memory in canonical form, NReq=29893243.
 FoFCou: FMM=F IPFlag=           0 FMFlag=           0 FMFlg1=           0
         NFxFlg=           0 DoJE=F BraDBF=F KetDBF=F FulRan=T
         wScrn=  0.000000 ICntrl=       600 IOpCl=  0 I1Cent=           0 NGrid=           0
         NMat0=    1 NMatS0=   6670 NMatT0=    0 NMatD0=    1 NMtDS0=    0 NMtDT0=    0
 Symmetry not used in FoFCou.
 Two-electron integral symmetry not used.
 Closed shell SCF:
 Using DIIS extrapolation, IDIIS=  1040.
 NGot=  1073741824 LenX=  1051457981 LenY=  1051440640
 Requested convergence on RMS density matrix=1.00D-08 within 128 cycles.
 Requested convergence on MAX density matrix=1.00D-06.
 Requested convergence on             energy=1.00D-06.
 No special actions if energy rises.

 Cycle   1  Pass 1  IDiag  1:
 E= -56.4693374576144    
 DIIS: error= 4.19D-02 at cycle   1 NSaved=   1.
 NSaved= 1 IEnMin= 1 EnMin= -56.4693374576144     IErMin= 1 ErrMin= 4.19D-02
 ErrMax= 4.19D-02  0.00D+00 EMaxC= 1.00D-01 BMatC= 1.04D-01 BMatP= 1.04D-01
 IDIUse=3 WtCom= 5.81D-01 WtEn= 4.19D-01
 Coeff-Com:  0.100D+01
 Coeff-En:   0.100D+01
 Coeff:      0.100D+01
 Gap=     0.048 Goal=   None    Shift=    0.000
 GapD=    0.048 DampG=0.250 DampE=0.500 DampFc=0.2500 IDamp=-1.
 Damping current iteration by 2.50D-01
 RMSDP=4.12D-03 MaxDP=9.56D-02              OVMax= 3.72D-01

 Cycle   2  Pass 1  IDiag  1:
 E= -56.4995911888513     Delta-E=       -0.030253731237 Rises=F Damp=T
 DIIS: error= 1.16D-02 at cycle   2 NSaved=   2.
 NSaved= 2 IEnMin= 2 EnMin= -56.4995911888513     IErMin= 2 ErrMin= 1.16D-02
 ErrMax= 1.16D-02  0.00D+00 EMaxC= 1.00D-01 BMatC= 9.49D-03 BMatP= 1.04D-01
 IDIUse=3 WtCom= 8.84D-01 WtEn= 1.16D-01
 Coeff-Com: -0.364D+00 0.136D+01
 Coeff-En:   0.231D-01 0.977D+00
 Coeff:     -0.319D+00 0.132D+01
 Gap=     0.182 Goal=   None    Shift=    0.000
 RMSDP=7.91D-04 MaxDP=3.37D-02 DE=-3.03D-02 OVMax= 2.76D-01

 Cycle   3  Pass 1  IDiag  1:
 E= -56.5552131699338     Delta-E=       -0.055621981082 Rises=F Damp=F
 DIIS: error= 7.63D-04 at cycle   3 NSaved=   3.
 NSaved= 3 IEnMin= 3 EnMin= -56.5552131699338     IErMin= 3 ErrMin= 7.63D-04
 ErrMax= 7.63D-04  0.00D+00 EMaxC= 1.00D-01 BMatC= 5.08D-05 BMatP= 9.49D-03
 IDIUse=3 WtCom= 9.92D-01 WtEn= 7.63D-03
 Coeff-Com: -0.104D-01 0.253D-01 0.985D+00
 Coeff-En:   0.000D+00 0.000D+00 0.100D+01
 Coeff:     -0.103D-01 0.251D-01 0.985D+00
 Gap=     0.200 Goal=   None    Shift=    0.000
 RMSDP=1.17D-04 MaxDP=2.16D-03 DE=-5.56D-02 OVMax= 5.94D-03

 Cycle   4  Pass 1  IDiag  1:
 E= -56.5552469252659     Delta-E=       -0.000033755332 Rises=F Damp=F
 DIIS: error= 5.92D-04 at cycle   4 NSaved=   4.
 NSaved= 4 IEnMin= 4 EnMin= -56.5552469252659     IErMin= 4 ErrMin= 5.92D-04
 ErrMax= 5.92D-04  0.00D+00 EMaxC= 1.00D-01 BMatC= 2.14D-05 BMatP= 5.08D-05
 IDIUse=3 WtCom= 9.94D-01 WtEn= 5.92D-03
 Coeff-Com:  0.132D-01-0.153D-01 0.221D+00 0.781D+00
 Coeff-En:   0.000D+00 0.000D+00 0.171D+00 0.829D+00
 Coeff:      0.131D-01-0.152D-01 0.220D+00 0.782D+00
 Gap=     0.201 Goal=   None    Shift=    0.000
 RMSDP=2.45D-05 MaxDP=7.78D-04 DE=-3.38D-05 OVMax= 1.95D-03

 Cycle   5  Pass 1  IDiag  1:
 E= -56.5552665944742     Delta-E=       -0.000019669208 Rises=F Damp=F
 DIIS: error= 1.38D-04 at cycle   5 NSaved=   5.
 NSaved= 5 IEnMin= 5 EnMin= -56.5552665944742     IErMin= 5 ErrMin= 1.38D-04
 ErrMax= 1.38D-04  0.00D+00 EMaxC= 1.00D-01 BMatC= 7.84D-07 BMatP= 2.14D-05
 IDIUse=3 WtCom= 9.99D-01 WtEn= 1.38D-03
 Coeff-Com:  0.621D-02-0.642D-02 0.439D-01 0.240D+00 0.717D+00
 Coeff-En:   0.000D+00 0.000D+00 0.000D+00 0.000D+00 0.100D+01
 Coeff:      0.620D-02-0.641D-02 0.438D-01 0.239D+00 0.717D+00
 Gap=     0.202 Goal=   None    Shift=    0.000
 RMSDP=5.14D-06 MaxDP=9.85D-05 DE=-1.97D-05 OVMax= 3.34D-04

 Cycle   6  Pass 1  IDiag  1:
 E= -56.5552673155167     Delta-E=       -0.000000721043 Rises=F Damp=F
 DIIS: error= 1.20D-05 at cycle   6 NSaved=   6.
 NSaved= 6 IEnMin= 6 EnMin= -56.5552673155167     IErMin= 6 ErrMin= 1.20D-05
 ErrMax= 1.20D-05  0.00D+00 EMaxC= 1.00D-01 BMatC= 8.03D-09 BMatP= 7.84D-07
 IDIUse=1 WtCom= 1.00D+00 WtEn= 0.00D+00
 Coeff-Com:  0.190D-03-0.180D-03 0.160D-02-0.761D-02-0.121D-01 0.102D+01
 Coeff:      0.190D-03-0.180D-03 0.160D-02-0.761D-02-0.121D-01 0.102D+01
 Gap=     0.202 Goal=   None    Shift=    0.000
 RMSDP=7.45D-07 MaxDP=1.27D-05 DE=-7.21D-07 OVMax= 3.99D-05

 Cycle   7  Pass 1  IDiag  1:
 E= -56.5552673232191     Delta-E=       -0.000000007702 Rises=F Damp=F
 DIIS: error= 4.76D-07 at cycle   7 NSaved=   7.
 NSaved= 7 IEnMin= 7 EnMin= -56.5552673232191     IErMin= 7 ErrMin= 4.76D-07
 ErrMax= 4.76D-07  0.00D+00 EMaxC= 1.00D-01 BMatC= 1.46D-11 BMatP= 8.03D-09
 IDIUse=1 WtCom= 1.00D+00 WtEn= 0.00D+00
 Coeff-Com: -0.155D-04 0.140D-04-0.158D-03-0.620D-03-0.329D-02-0.316D-01
 Coeff-Com:  0.104D+01
 Coeff:     -0.155D-04 0.140D-04-0.158D-03-0.620D-03-0.329D-02-0.316D-01
 Coeff:      0.104D+01
 Gap=     0.202 Goal=   None    Shift=    0.000
 RMSDP=4.49D-08 MaxDP=1.70D-06 DE=-7.70D-09 OVMax= 1.55D-06

 Cycle   8  Pass 1  IDiag  1:
 E= -56.5552673232327     Delta-E=       -0.000000000014 Rises=F Damp=F
 DIIS: error= 4.38D-08 at cycle   8 NSaved=   8.
 NSaved= 8 IEnMin= 8 EnMin= -56.5552673232327     IErMin= 8 ErrMin= 4.38D-08
 ErrMax= 4.38D-08  0.00D+00 EMaxC= 1.00D-01 BMatC= 1.40D-13 BMatP= 1.46D-11
 IDIUse=1 WtCom= 1.00D+00 WtEn= 0.00D+00
 Coeff-Com: -0.855D-06 0.178D-06-0.123D-04 0.477D-04-0.429D-04-0.706D-02
 Coeff-Com:  0.122D+00 0.885D+00
 Coeff:     -0.855D-06 0.178D-06-0.123D-04 0.477D-04-0.429D-04-0.706D-02
 Coeff:      0.122D+00 0.885D+00
 Gap=     0.202 Goal=   None    Shift=    0.000
 RMSDP=3.71D-09 MaxDP=7.92D-08 DE=-1.36D-11 OVMax= 1.61D-07

 SCF Done:  E(RB97D3) =  -56.5552673232     A.U. after    8 cycles
            NFock=  8  Conv=0.37D-08     -V/T= 2.0059
 KE= 5.622081525807D+01 PE=-1.559030111012D+02 EE= 3.118465922335D+01
 Leave Link  502 at Thu Mar 24 10:26:07 2022, MaxMem=  1073741824 cpu:              46.3 elap:               9.1
 (Enter /opt/GAUSSIAN/g16/l601.exe)
 Copying SCF densities to generalized density rwf, IOpCl= 0 IROHF=0.

 **********************************************************************

            Population analysis using the SCF Density.

 **********************************************************************

 Orbital symmetries:
       Occupied  (A) (A) (A) (A) (A)
       Virtual   (A) (A) (A) (A) (A) (A) (A) (A) (A) (A) (A) (A)
                 (A) (A) (A) (A) (A) (A) (A) (A) (A) (A) (A) (A)
                 (A) (A) (A) (A) (A) (A) (A) (A) (A) (A) (A) (A)
                 (A) (A) (A) (A) (A) (A) (A) (A) (A) (A) (A) (A)
                 (A) (A) (A) (A) (A) (A) (A) (A) (A) (A) (A) (A)
                 (A) (A) (A) (A) (A) (A) (A) (A) (A) (A) (A) (A)
                 (A) (A) (A) (A) (A) (A) (A) (A) (A) (A) (A) (A)
                 (A) (A) (A) (A) (A) (A) (A) (A) (A) (A) (A) (A)
                 (A) (A) (A) (A) (A) (A) (A) (A) (A) (A) (A) (A)
                 (A) (A)
 The electronic state is 1-A.
 Alpha  occ. eigenvalues --  -13.97573  -0.78078  -0.41787  -0.41777  -0.22514
 Alpha virt. eigenvalues --   -0.02348   0.02187   0.02187   0.06362   0.08428
 Alpha virt. eigenvalues --    0.11100   0.11101   0.11767   0.11769   0.15745
 Alpha virt. eigenvalues --    0.15747   0.16554   0.26055   0.28721   0.29599
 Alpha virt. eigenvalues --    0.29599   0.32323   0.32379   0.32383   0.38082
 Alpha virt. eigenvalues --    0.38082   0.43376   0.46711   0.46714   0.56745
 Alpha virt. eigenvalues --    0.61366   0.61371   0.64731   0.71318   0.76457
 Alpha virt. eigenvalues --    0.76563   0.76567   0.82140   0.82142   0.87021
 Alpha virt. eigenvalues --    0.88654   0.88656   0.94434   0.94989   0.94992
 Alpha virt. eigenvalues --    0.99155   0.99155   1.02030   1.06060   1.06069
 Alpha virt. eigenvalues --    1.10992   1.16449   1.16457   1.37973   1.50586
 Alpha virt. eigenvalues --    1.50594   1.51721   1.58946   1.60303   1.60305
 Alpha virt. eigenvalues --    1.73303   1.74994   1.75009   1.79811   1.79818
 Alpha virt. eigenvalues --    1.95465   2.09274   2.09279   2.10123   2.13140
 Alpha virt. eigenvalues --    2.13146   2.15286   2.99947   3.15746   3.15750
 Alpha virt. eigenvalues --    3.55050   3.58869   3.58879   3.77201   3.77205
 Alpha virt. eigenvalues --    3.78262   3.82378   3.82389   3.84520   3.93452
 Alpha virt. eigenvalues --    3.93460   3.94785   4.06674   4.10574   4.10582
 Alpha virt. eigenvalues --    4.25645   4.32284   4.32293   4.55177   4.55188
 Alpha virt. eigenvalues --    4.58322   4.59754   4.62658   4.62661   4.75162
 Alpha virt. eigenvalues --    5.12823   5.12848   5.26587   5.39524   5.39551
 Alpha virt. eigenvalues --    5.53395   5.80561   5.80624   5.95299   6.12114
 Alpha virt. eigenvalues --    6.41556   6.41586   7.12504   7.12534  16.29958
          Condensed to atoms (all electrons):
               1          2          3          4
     1  N    6.442017   0.315218   0.315188   0.315219
     2  H    0.315218   0.576650  -0.010531  -0.010551
     3  H    0.315188  -0.010531   0.576635  -0.010541
     4  H    0.315219  -0.010551  -0.010541   0.576694
 Mulliken charges:
               1
     1  N   -0.387642
     2  H    0.129214
     3  H    0.129249
     4  H    0.129179
 Sum of Mulliken charges =  -0.00000
 Mulliken charges with hydrogens summed into heavy atoms:
               1
     1  N   -0.000000
 Electronic spatial extent (au):  <R**2>=             27.0797
 Charge=             -0.0000 electrons
 Dipole moment (field-independent basis, Debye):
    X=              0.0003    Y=              0.0004    Z=              1.4233  Tot=              1.4233
 Quadrupole moment (field-independent basis, Debye-Ang):
   XX=             -6.3511   YY=             -6.3529   ZZ=             -9.5240
   XY=             -0.0001   XZ=             -0.0001   YZ=             -0.0003
 Traceless Quadrupole moment (field-independent basis, Debye-Ang):
   XX=              1.0582   YY=              1.0565   ZZ=             -2.1147
   XY=             -0.0001   XZ=             -0.0001   YZ=             -0.0003
 Octapole moment (field-independent basis, Debye-Ang**2):
  XXX=             -0.8049  YYY=              0.4631  ZZZ=              1.0725  XYY=              0.8053
  XXY=             -0.4626  XXZ=              0.7684  XZZ=              0.0000  YZZ=             -0.0000
  YYZ=              0.7678  XYZ=             -0.0001
 Hexadecapole moment (field-independent basis, Debye-Ang**3):
 XXXX=            -10.8174 YYYY=            -10.8181 ZZZZ=            -13.8892 XXXY=             -0.0006
 XXXZ=             -0.2616 YYYX=              0.0002 YYYZ=              0.1498 ZZZX=             -0.0002
 ZZZY=             -0.0005 XXYY=             -3.6058 XXZZ=             -4.3208 YYZZ=             -4.3208
 XXYZ=             -0.1504 YYXZ=              0.2613 ZZXY=             -0.0001
 N-N= 1.194226929651D+01 E-N=-1.559030091766D+02  KE= 5.622081525807D+01
 No NMR shielding tensors so no spin-rotation constants.
 Leave Link  601 at Thu Mar 24 10:26:08 2022, MaxMem=  1073741824 cpu:               4.1 elap:               1.0
 (Enter /opt/GAUSSIAN/g16/l701.exe)
 ... and contract with generalized density number  0.
 Compute integral first derivatives.
 R6Disp: Adding Grimme-D3(BJ) dispersion energy 1st derivatives to the gradient.
 Leave Link  701 at Thu Mar 24 10:26:12 2022, MaxMem=  1073741824 cpu:               5.3 elap:               3.1
 (Enter /opt/GAUSSIAN/g16/l702.exe)
 L702 exits ... SP integral derivatives will be done elsewhere.
 Leave Link  702 at Thu Mar 24 10:26:13 2022, MaxMem=  1073741824 cpu:               0.4 elap:               0.3
 (Enter /opt/GAUSSIAN/g16/l703.exe)
 Integral derivatives from FoFJK, PRISM(SPDF).
 Compute integral first derivatives, UseDBF=F ICtDFT=           0.
 Calling FoFJK, ICntrl=      2527 FMM=F ISym2X=0 I1Cent= 0 IOpClX= 0 NMat=1 NMatS=1 NMatT=0.
 FoFJK:  IHMeth= 1 ICntrl=    2527 DoSepK=F KAlg= 0 I1Cent=           0 FoldK=F
 IRaf=         0 NMat=       1 IRICut=       1 DoRegI=T DoRafI=F ISym2E= 0 IDoP0=0 IntGTp=1.
 FoFCou: FMM=F IPFlag=           0 FMFlag=      100000 FMFlg1=         800
         NFxFlg=           0 DoJE=F BraDBF=F KetDBF=F FulRan=T
         wScrn=  0.000000 ICntrl=      2527 IOpCl=  0 I1Cent=           0 NGrid=           0
         NMat0=    1 NMatS0=      1 NMatT0=    0 NMatD0=    1 NMtDS0=    0 NMtDT0=    0
 Symmetry not used in FoFCou.
 Leave Link  703 at Thu Mar 24 10:26:18 2022, MaxMem=  1073741824 cpu:              37.8 elap:               5.2
 (Enter /opt/GAUSSIAN/g16/l716.exe)
 Dipole        = 1.31709762D-04 1.62039280D-04 5.59981119D-01
 ***** Axes restored to original set *****
 -------------------------------------------------------------------
 Center     Atomic                   Forces (Hartrees/Bohr)
 Number     Number              X              Y              Z
 -------------------------------------------------------------------
      1        7          -0.003328292    0.002841253    0.003831171
      2        1           0.000248748   -0.000047686   -0.002732985
      3        1           0.000338663   -0.002601329   -0.000613591
      4        1           0.002740881   -0.000192239   -0.000484594
 -------------------------------------------------------------------
 Cartesian Forces:  Max     0.003831171 RMS     0.002168021
 Leave Link  716 at Thu Mar 24 10:26:20 2022, MaxMem=  1073741824 cpu:               0.4 elap:               0.6
 (Enter /opt/GAUSSIAN/g16/l103.exe)

 GradGradGradGradGradGradGradGradGradGradGradGradGradGradGradGradGradGrad
 Berny optimization.
 FormGI is forming the generalized inverse of G from B-inverse, IUseBI=4.
 Internal  Forces:  Max     0.002561839 RMS     0.001860809
 Search for a local minimum.
 Step number   1 out of a maximum of   20
 All quantities printed in internal units (Hartrees-Bohrs-Radians)
 RMS Force = .18608D-02 SwitMx=.10000D-02 MixMth= 1
 Mixed Optimization -- RFO/linear search
 Second derivative matrix not updated -- first step.
 The second derivative matrix:
                          R1        R2        R3        A1        A2
           R1           0.45533
           R2           0.00000   0.45522
           R3           0.00000   0.00000   0.45542
           A1           0.00000   0.00000   0.00000   0.16000
           A2           0.00000   0.00000   0.00000   0.00000   0.16000
           A3           0.00000   0.00000   0.00000   0.00000   0.00000
           D1           0.00000   0.00000   0.00000   0.00000   0.00000
                          A3        D1
           A3           0.16000
           D1           0.00000   0.00862
 ITU=  0
     Eigenvalues ---    0.06129   0.16000   0.16000   0.45522   0.45533
     Eigenvalues ---    0.45542
 RFO step:  Lambda=-1.09833443D-04 EMin= 6.12895025D-02
 Linear search not attempted -- first point.
 Iteration  1 RMS(Cart)=  0.00711321 RMS(Int)=  0.00015115
 Iteration  2 RMS(Cart)=  0.00009446 RMS(Int)=  0.00011193
 Iteration  3 RMS(Cart)=  0.00000001 RMS(Int)=  0.00011193
 ITry= 1 IFail=0 DXMaxC= 1.04D-02 DCOld= 1.00D+10 DXMaxT= 3.00D-01 DXLimC= 3.00D+00 Rises=F
 Variable       Old X    -DE/DX   Delta X   Delta X   Delta X     New X
                                 (Linear)    (Quad)   (Total)
    R1        1.91362   0.00251   0.00000   0.00550   0.00550   1.91912
    R2        1.91375   0.00246   0.00000   0.00541   0.00541   1.91916
    R3        1.91351   0.00256   0.00000   0.00562   0.00562   1.91913
    A1        1.87896  -0.00023   0.00000  -0.01086  -0.01106   1.86789
    A2        1.87935  -0.00128   0.00000  -0.01207  -0.01216   1.86720
    A3        1.87860  -0.00117   0.00000  -0.01140  -0.01149   1.86711
    D1       -2.02124   0.00151   0.00000   0.02457   0.02439  -1.99685
         Item               Value     Threshold  Converged?
 Maximum Force            0.002562     0.000450     NO 
 RMS     Force            0.001861     0.000300     NO 
 Maximum Displacement     0.010422     0.001800     NO 
 RMS     Displacement     0.007142     0.001200     NO 
 Predicted change in Energy=-5.432235D-05
 Lowest energy point so far.  Saving SCF results.
 GradGradGradGradGradGradGradGradGradGradGradGradGradGradGradGradGradGrad

 Leave Link  103 at Thu Mar 24 10:26:20 2022, MaxMem=  1073741824 cpu:               3.9 elap:               0.6
 (Enter /opt/GAUSSIAN/g16/l202.exe)
                          Input orientation:                          
 ---------------------------------------------------------------------
 Center     Atomic      Atomic             Coordinates (Angstroms)
 Number     Number       Type             X           Y           Z
 ---------------------------------------------------------------------
      1          7           0       14.652148    6.858027   -3.535820
      2          1           0       14.442631    7.117369   -4.495088
      3          1           0       14.509385    5.855326   -3.460974
      4          1           0       15.643035    7.028014   -3.392256
 ---------------------------------------------------------------------
                    Distance matrix (angstroms):
                    1          2          3          4
     1  N    0.000000
     2  H    1.015555   0.000000
     3  H    1.015575   1.632973   0.000000
     4  H    1.015561   1.632542   1.632508   0.000000
 Stoichiometry    H3N
 Framework group  C1[X(H3N)]
 Deg. of freedom     6
 Full point group                 C1      NOp   1
 RotChk:  IX=3 Diff= 9.22D-01
 Largest Abelian subgroup         C1      NOp   1
 Largest concise Abelian subgroup C1      NOp   1
                         Standard orientation:                         
 ---------------------------------------------------------------------
 Center     Atomic      Atomic             Coordinates (Angstroms)
 Number     Number       Type             X           Y           Z
 ---------------------------------------------------------------------
      1          7           0       -0.000011    0.000065   -0.113377
      2          1           0       -0.831786    0.443481    0.264624
      3          1           0        0.800272    0.498137    0.264594
      4          1           0        0.031594   -0.942076    0.264424
 ---------------------------------------------------------------------
 Rotational constants (GHZ):         297.6492085         297.4765865         188.1190931
 Leave Link  202 at Thu Mar 24 10:26:20 2022, MaxMem=  1073741824 cpu:               0.1 elap:               0.1
 (Enter /opt/GAUSSIAN/g16/l301.exe)
 Standard basis: Aug-CC-pVTZ (5D, 7F)
 Ernie: Thresh=  0.10000D-02 Tol=  0.10000D-05 Strict=F.
 Ernie:  3 primitive shells out of 63 were deleted.
 There are   130 symmetry adapted cartesian basis functions of A   symmetry.
 There are   115 symmetry adapted basis functions of A   symmetry.
   115 basis functions,   153 primitive gaussians,   130 cartesian basis functions
     5 alpha electrons        5 beta electrons
       nuclear repulsion energy        11.9147700045 Hartrees.
 IExCor= 3630 DFT=T Ex+Corr=B97D3 ExCW=0 ScaHFX=  0.000000
 ScaDFX=  1.000000  1.000000  1.000000  1.000000 ScalE2=  1.000000  1.000000
 IRadAn=      5 IRanWt=     -1 IRanGd=            0 ICorTp=0 IEmpDi=141
 NAtoms=    4 NActive=    4 NUniq=    4 SFac= 1.00D+00 NAtFMM=   60 NAOKFM=F Big=F
 Integral buffers will be    131072 words long.
 Raffenetti 2 integral format.
 Two-electron integral symmetry is turned on.
 R6Disp:  Grimme-D3(BJ) Dispersion energy=       -0.0026835477 Hartrees.
 Nuclear repulsion after empirical dispersion term =       11.9120864568 Hartrees.
 Leave Link  301 at Thu Mar 24 10:26:20 2022, MaxMem=  1073741824 cpu:               0.8 elap:               0.1
 (Enter /opt/GAUSSIAN/g16/l302.exe)
 NPDir=0 NMtPBC=     1 NCelOv=     1 NCel=       1 NClECP=     1 NCelD=      1
         NCelK=      1 NCelE2=     1 NClLst=     1 CellRange=     0.0.
 One-electron integrals computed using PRISM.
 One-electron integral symmetry used in STVInt
 NBasis=   115 RedAO= T EigKep=  2.72D-04  NBF=   115
 NBsUse=   115 1.00D-06 EigRej= -1.00D+00 NBFU=   115
 Precomputing XC quadrature grid using
 IXCGrd= 4 IRadAn=           5 IRanWt=          -1 IRanGd=           0 AccXCQ= 0.00D+00.
 Generated NRdTot=       0 NPtTot=           0 NUsed=           0 NTot=          32
 NSgBfM=   130   130   130   130   130 MxSgAt=     4 MxSgA2=     4.
 Leave Link  302 at Thu Mar 24 10:26:21 2022, MaxMem=  1073741824 cpu:               2.1 elap:               0.3
 (Enter /opt/GAUSSIAN/g16/l303.exe)
 DipDrv:  MaxL=1.
 Leave Link  303 at Thu Mar 24 10:26:21 2022, MaxMem=  1073741824 cpu:               0.4 elap:               0.1
 (Enter /opt/GAUSSIAN/g16/l401.exe)
 Initial guess from the checkpoint file:  "input.chk"
 B after Tr=    -0.000000   -0.000000    0.000000
         Rot=    0.945399   -0.000155    0.000038    0.325916 Ang= -38.04 deg.
 Guess basis will be translated and rotated to current coordinates.
 JPrj=2 DoOrth=T DoCkMO=T.
 Leave Link  401 at Thu Mar 24 10:26:21 2022, MaxMem=  1073741824 cpu:               1.4 elap:               0.2
 (Enter /opt/GAUSSIAN/g16/l502.exe)
 Keep J ints in memory in canonical form, NReq=29893243.
 FoFCou: FMM=F IPFlag=           0 FMFlag=           0 FMFlg1=           0
         NFxFlg=           0 DoJE=F BraDBF=F KetDBF=F FulRan=T
         wScrn=  0.000000 ICntrl=       600 IOpCl=  0 I1Cent=           0 NGrid=           0
         NMat0=    1 NMatS0=   6670 NMatT0=    0 NMatD0=    1 NMtDS0=    0 NMtDT0=    0
 Symmetry not used in FoFCou.
 Two-electron integral symmetry not used.
 Closed shell SCF:
 Using DIIS extrapolation, IDIIS=  1040.
 NGot=  1073741824 LenX=  1051457981 LenY=  1051440640
 Requested convergence on RMS density matrix=1.00D-08 within 128 cycles.
 Requested convergence on MAX density matrix=1.00D-06.
 Requested convergence on             energy=1.00D-06.
 No special actions if energy rises.

 Cycle   1  Pass 1  IDiag  1:
 E= -56.5553051669943    
 DIIS: error= 8.38D-04 at cycle   1 NSaved=   1.
 NSaved= 1 IEnMin= 1 EnMin= -56.5553051669943     IErMin= 1 ErrMin= 8.38D-04
 ErrMax= 8.38D-04  0.00D+00 EMaxC= 1.00D-01 BMatC= 4.26D-05 BMatP= 4.26D-05
 IDIUse=3 WtCom= 9.92D-01 WtEn= 8.38D-03
 Coeff-Com:  0.100D+01
 Coeff-En:   0.100D+01
 Coeff:      0.100D+01
 Gap=     0.369 Goal=   None    Shift=    0.000
 RMSDP=1.01D-04 MaxDP=4.12D-03              OVMax= 4.69D-03

 Cycle   2  Pass 1  IDiag  1:
 E= -56.5553445103914     Delta-E=       -0.000039343397 Rises=F Damp=F
 DIIS: error= 2.18D-04 at cycle   2 NSaved=   2.
 NSaved= 2 IEnMin= 2 EnMin= -56.5553445103914     IErMin= 2 ErrMin= 2.18D-04
 ErrMax= 2.18D-04  0.00D+00 EMaxC= 1.00D-01 BMatC= 3.14D-06 BMatP= 4.26D-05
 IDIUse=3 WtCom= 9.98D-01 WtEn= 2.18D-03
 Coeff-Com:  0.118D+00 0.882D+00
 Coeff-En:   0.000D+00 0.100D+01
 Coeff:      0.118D+00 0.882D+00
 Gap=     0.203 Goal=   None    Shift=    0.000
 RMSDP=1.08D-05 MaxDP=3.59D-04 DE=-3.93D-05 OVMax= 9.96D-04

 Cycle   3  Pass 1  IDiag  1:
 E= -56.5553467163113     Delta-E=       -0.000002205920 Rises=F Damp=F
 DIIS: error= 1.03D-04 at cycle   3 NSaved=   3.
 NSaved= 3 IEnMin= 3 EnMin= -56.5553467163113     IErMin= 3 ErrMin= 1.03D-04
 ErrMax= 1.03D-04  0.00D+00 EMaxC= 1.00D-01 BMatC= 5.39D-07 BMatP= 3.14D-06
 IDIUse=3 WtCom= 9.99D-01 WtEn= 1.03D-03
 Coeff-Com: -0.129D-02 0.291D+00 0.710D+00
 Coeff-En:   0.000D+00 0.000D+00 0.100D+01
 Coeff:     -0.129D-02 0.291D+00 0.710D+00
 Gap=     0.203 Goal=   None    Shift=    0.000
 RMSDP=2.95D-06 MaxDP=6.21D-05 DE=-2.21D-06 OVMax= 3.25D-04

 Cycle   4  Pass 1  IDiag  1:
 E= -56.5553471913979     Delta-E=       -0.000000475087 Rises=F Damp=F
 DIIS: error= 1.57D-05 at cycle   4 NSaved=   4.
 NSaved= 4 IEnMin= 4 EnMin= -56.5553471913979     IErMin= 4 ErrMin= 1.57D-05
 ErrMax= 1.57D-05  0.00D+00 EMaxC= 1.00D-01 BMatC= 1.38D-08 BMatP= 5.39D-07
 IDIUse=1 WtCom= 1.00D+00 WtEn= 0.00D+00
 Coeff-Com: -0.101D-02 0.178D+00 0.442D+00 0.381D+00
 Coeff:     -0.101D-02 0.178D+00 0.442D+00 0.381D+00
 Gap=     0.203 Goal=   None    Shift=    0.000
 RMSDP=5.75D-07 MaxDP=1.36D-05 DE=-4.75D-07 OVMax= 4.27D-05

 Cycle   5  Pass 1  IDiag  1:
 E= -56.5553472029401     Delta-E=       -0.000000011542 Rises=F Damp=F
 DIIS: error= 1.62D-06 at cycle   5 NSaved=   5.
 NSaved= 5 IEnMin= 5 EnMin= -56.5553472029401     IErMin= 5 ErrMin= 1.62D-06
 ErrMax= 1.62D-06  0.00D+00 EMaxC= 1.00D-01 BMatC= 1.45D-10 BMatP= 1.38D-08
 IDIUse=1 WtCom= 1.00D+00 WtEn= 0.00D+00
 Coeff-Com: -0.457D-04 0.165D-02 0.104D-01 0.877D-01 0.900D+00
 Coeff:     -0.457D-04 0.165D-02 0.104D-01 0.877D-01 0.900D+00
 Gap=     0.203 Goal=   None    Shift=    0.000
 RMSDP=1.51D-07 MaxDP=4.90D-06 DE=-1.15D-08 OVMax= 3.92D-06

 Cycle   6  Pass 1  IDiag  1:
 E= -56.5553472030485     Delta-E=       -0.000000000108 Rises=F Damp=F
 DIIS: error= 1.70D-07 at cycle   6 NSaved=   6.
 NSaved= 6 IEnMin= 6 EnMin= -56.5553472030485     IErMin= 6 ErrMin= 1.70D-07
 ErrMax= 1.70D-07  0.00D+00 EMaxC= 1.00D-01 BMatC= 1.73D-12 BMatP= 1.45D-10
 IDIUse=1 WtCom= 1.00D+00 WtEn= 0.00D+00
 Coeff-Com:  0.418D-05-0.227D-02-0.513D-02 0.119D-01 0.786D-01 0.917D+00
 Coeff:      0.418D-05-0.227D-02-0.513D-02 0.119D-01 0.786D-01 0.917D+00
 Gap=     0.203 Goal=   None    Shift=    0.000
 RMSDP=1.76D-08 MaxDP=6.32D-07 DE=-1.08D-10 OVMax= 7.04D-07

 Cycle   7  Pass 1  IDiag  1:
 E= -56.5553472030501     Delta-E=       -0.000000000002 Rises=F Damp=F
 DIIS: error= 3.84D-08 at cycle   7 NSaved=   7.
 NSaved= 7 IEnMin= 7 EnMin= -56.5553472030501     IErMin= 7 ErrMin= 3.84D-08
 ErrMax= 3.84D-08  0.00D+00 EMaxC= 1.00D-01 BMatC= 8.60D-14 BMatP= 1.73D-12
 IDIUse=1 WtCom= 1.00D+00 WtEn= 0.00D+00
 Coeff-Com:  0.227D-05-0.880D-03-0.206D-02 0.359D-02 0.201D-01 0.352D+00
 Coeff-Com:  0.627D+00
 Coeff:      0.227D-05-0.880D-03-0.206D-02 0.359D-02 0.201D-01 0.352D+00
 Coeff:      0.627D+00
 Gap=     0.203 Goal=   None    Shift=    0.000
 RMSDP=1.65D-09 MaxDP=3.93D-08 DE=-1.52D-12 OVMax= 1.35D-07

 SCF Done:  E(RB97D3) =  -56.5553472031     A.U. after    7 cycles
            NFock=  7  Conv=0.16D-08     -V/T= 2.0061
 KE= 5.621082826142D+01 PE=-1.558357977284D+02 EE= 3.115753580719D+01
 Leave Link  502 at Thu Mar 24 10:26:25 2022, MaxMem=  1073741824 cpu:              26.4 elap:               3.9
 (Enter /opt/GAUSSIAN/g16/l701.exe)
 ... and contract with generalized density number  0.
 Compute integral first derivatives.
 R6Disp: Adding Grimme-D3(BJ) dispersion energy 1st derivatives to the gradient.
 Leave Link  701 at Thu Mar 24 10:26:25 2022, MaxMem=  1073741824 cpu:               2.7 elap:               0.4
 (Enter /opt/GAUSSIAN/g16/l702.exe)
 L702 exits ... SP integral derivatives will be done elsewhere.
 Leave Link  702 at Thu Mar 24 10:26:25 2022, MaxMem=  1073741824 cpu:               0.3 elap:               0.1
 (Enter /opt/GAUSSIAN/g16/l703.exe)
 Integral derivatives from FoFJK, PRISM(SPDF).
 Compute integral first derivatives, UseDBF=F ICtDFT=           0.
 Calling FoFJK, ICntrl=      2527 FMM=F ISym2X=0 I1Cent= 0 IOpClX= 0 NMat=1 NMatS=1 NMatT=0.
 FoFJK:  IHMeth= 1 ICntrl=    2527 DoSepK=F KAlg= 0 I1Cent=           0 FoldK=F
 IRaf=         0 NMat=       1 IRICut=       1 DoRegI=T DoRafI=F ISym2E= 0 IDoP0=0 IntGTp=1.
 FoFCou: FMM=F IPFlag=           0 FMFlag=      100000 FMFlg1=         800
         NFxFlg=           0 DoJE=F BraDBF=F KetDBF=F FulRan=T
         wScrn=  0.000000 ICntrl=      2527 IOpCl=  0 I1Cent=           0 NGrid=           0
         NMat0=    1 NMatS0=      1 NMatT0=    0 NMatD0=    1 NMtDS0=    0 NMtDT0=    0
 Symmetry not used in FoFCou.
 Leave Link  703 at Thu Mar 24 10:26:28 2022, MaxMem=  1073741824 cpu:              24.4 elap:               3.1
 (Enter /opt/GAUSSIAN/g16/l716.exe)
 Dipole        = 3.49182844D-05-2.13218135D-04 5.71521324D-01
 ***** Axes restored to original set *****
 -------------------------------------------------------------------
 Center     Atomic                   Forces (Hartrees/Bohr)
 Number     Number              X              Y              Z
 -------------------------------------------------------------------
      1        7          -0.001379503    0.001284189    0.001686274
      2        1           0.000212446   -0.000211553   -0.000960357
      3        1           0.000244185   -0.000869566   -0.000410187
      4        1           0.000922872   -0.000203070   -0.000315731
 -------------------------------------------------------------------
 Cartesian Forces:  Max     0.001686274 RMS     0.000884332
 Leave Link  716 at Thu Mar 24 10:26:29 2022, MaxMem=  1073741824 cpu:               0.4 elap:               0.1
 (Enter /opt/GAUSSIAN/g16/l103.exe)

 GradGradGradGradGradGradGradGradGradGradGradGradGradGradGradGradGradGrad
 Berny optimization.
 Using GEDIIS/GDIIS optimizer.
 FormGI is forming the generalized inverse of G from B-inverse, IUseBI=4.
 Internal  Forces:  Max     0.000821832 RMS     0.000697125
 Search for a local minimum.
 Step number   2 out of a maximum of   20
 All quantities printed in internal units (Hartrees-Bohrs-Radians)
 RMS Force = .69713D-03 SwitMx=.10000D-02 MixMth= 2
 Mixed Optimization -- En-DIIS/RFO-DIIS
 Update second derivatives using D2CorX and points    1    2
 DE= -7.99D-05 DEPred=-5.43D-05 R= 1.47D+00
 TightC=F SS=  1.41D+00  RLast= 3.30D-02 DXNew= 5.0454D-01 9.8973D-02
 Trust test= 1.47D+00 RLast= 3.30D-02 DXMaxT set to 3.00D-01
 The second derivative matrix:
                          R1        R2        R3        A1        A2
           R1           0.44659
           R2          -0.00855   0.44686
           R3          -0.00878  -0.00859   0.44660
           A1           0.03876   0.03811   0.03962   0.13180
           A2           0.02553   0.02508   0.02604  -0.03056   0.13298
           A3           0.02581   0.02536   0.02633  -0.02892  -0.02618
           D1           0.01520   0.01496   0.01560   0.00285  -0.00398
                          A3        D1
           A3           0.13470
           D1          -0.00306   0.01654
 ITU=  1  0
 Use linear search instead of GDIIS.
     Eigenvalues ---    0.03776   0.15136   0.16003   0.43349   0.45526
     Eigenvalues ---    0.45538
 RFO step:  Lambda=-3.39296120D-06 EMin= 3.77601480D-02
 Quartic linear search produced a step of  0.79963.
 Iteration  1 RMS(Cart)=  0.00707023 RMS(Int)=  0.00020849
 Iteration  2 RMS(Cart)=  0.00008286 RMS(Int)=  0.00018899
 Iteration  3 RMS(Cart)=  0.00000000 RMS(Int)=  0.00018899
 ITry= 1 IFail=0 DXMaxC= 9.79D-03 DCOld= 1.00D+10 DXMaxT= 3.00D-01 DXLimC= 3.00D+00 Rises=F
 Variable       Old X    -DE/DX   Delta X   Delta X   Delta X     New X
                                 (Linear)    (Quad)   (Total)
    R1        1.91912   0.00081   0.00440  -0.00103   0.00337   1.92249
    R2        1.91916   0.00079   0.00433  -0.00102   0.00331   1.92247
    R3        1.91913   0.00082   0.00450  -0.00107   0.00343   1.92256
    A1        1.86789  -0.00019  -0.00885  -0.00248  -0.01167   1.85622
    A2        1.86720  -0.00062  -0.00972  -0.00147  -0.01132   1.85587
    A3        1.86711  -0.00061  -0.00919  -0.00185  -0.01117   1.85594
    D1       -1.99685   0.00080   0.01951   0.00442   0.02362  -1.97323
         Item               Value     Threshold  Converged?
 Maximum Force            0.000822     0.000450     NO 
 RMS     Force            0.000697     0.000300     NO 
 Maximum Displacement     0.009786     0.001800     NO 
 RMS     Displacement     0.007101     0.001200     NO 
 Predicted change in Energy=-2.217164D-05
 Lowest energy point so far.  Saving SCF results.
 GradGradGradGradGradGradGradGradGradGradGradGradGradGradGradGradGradGrad

 Leave Link  103 at Thu Mar 24 10:26:29 2022, MaxMem=  1073741824 cpu:               0.1 elap:               0.1
 (Enter /opt/GAUSSIAN/g16/l202.exe)
                          Input orientation:                          
 ---------------------------------------------------------------------
 Center     Atomic      Atomic             Coordinates (Angstroms)
 Number     Number       Type             X           Y           Z
 ---------------------------------------------------------------------
      1          7           0       14.647770    6.862001   -3.530641
      2          1           0       14.445121    7.114823   -4.495004
      3          1           0       14.511663    5.856053   -3.463584
      4          1           0       15.642645    7.025860   -3.394909
 ---------------------------------------------------------------------
                    Distance matrix (angstroms):
                    1          2          3          4
     1  N    0.000000
     2  H    1.017339   0.000000
     3  H    1.017326   1.628728   0.000000
     4  H    1.017374   1.628553   1.628583   0.000000
 Stoichiometry    H3N
 Framework group  C1[X(H3N)]
 Deg. of freedom     6
 Full point group                 C1      NOp   1
 RotChk:  IX=3 Diff= 1.60D-01
 Largest Abelian subgroup         C1      NOp   1
 Largest concise Abelian subgroup C1      NOp   1
                         Standard orientation:                         
 ---------------------------------------------------------------------
 Center     Atomic      Atomic             Coordinates (Angstroms)
 Number     Number       Type             X           Y           Z
 ---------------------------------------------------------------------
      1          7           0        0.000010    0.000035   -0.116521
      2          1           0       -0.774541    0.533115    0.271906
      3          1           0        0.849060    0.403983    0.271929
      4          1           0       -0.074588   -0.937344    0.271814
 ---------------------------------------------------------------------
 Rotational constants (GHZ):         295.2798888         295.2187915         189.0565622
 Leave Link  202 at Thu Mar 24 10:26:29 2022, MaxMem=  1073741824 cpu:               0.1 elap:               0.1
 (Enter /opt/GAUSSIAN/g16/l301.exe)
 Standard basis: Aug-CC-pVTZ (5D, 7F)
 Ernie: Thresh=  0.10000D-02 Tol=  0.10000D-05 Strict=F.
 Ernie:  3 primitive shells out of 63 were deleted.
 There are   130 symmetry adapted cartesian basis functions of A   symmetry.
 There are   115 symmetry adapted basis functions of A   symmetry.
   115 basis functions,   153 primitive gaussians,   130 cartesian basis functions
     5 alpha electrons        5 beta electrons
       nuclear repulsion energy        11.8980117618 Hartrees.
 IExCor= 3630 DFT=T Ex+Corr=B97D3 ExCW=0 ScaHFX=  0.000000
 ScaDFX=  1.000000  1.000000  1.000000  1.000000 ScalE2=  1.000000  1.000000
 IRadAn=      5 IRanWt=     -1 IRanGd=            0 ICorTp=0 IEmpDi=141
 NAtoms=    4 NActive=    4 NUniq=    4 SFac= 1.00D+00 NAtFMM=   60 NAOKFM=F Big=F
 Integral buffers will be    131072 words long.
 Raffenetti 2 integral format.
 Two-electron integral symmetry is turned on.
 R6Disp:  Grimme-D3(BJ) Dispersion energy=       -0.0026840404 Hartrees.
 Nuclear repulsion after empirical dispersion term =       11.8953277214 Hartrees.
 Leave Link  301 at Thu Mar 24 10:26:29 2022, MaxMem=  1073741824 cpu:               0.8 elap:               0.1
 (Enter /opt/GAUSSIAN/g16/l302.exe)
 NPDir=0 NMtPBC=     1 NCelOv=     1 NCel=       1 NClECP=     1 NCelD=      1
         NCelK=      1 NCelE2=     1 NClLst=     1 CellRange=     0.0.
 One-electron integrals computed using PRISM.
 One-electron integral symmetry used in STVInt
 NBasis=   115 RedAO= T EigKep=  2.73D-04  NBF=   115
 NBsUse=   115 1.00D-06 EigRej= -1.00D+00 NBFU=   115
 Precomputing XC quadrature grid using
 IXCGrd= 4 IRadAn=           5 IRanWt=          -1 IRanGd=           0 AccXCQ= 0.00D+00.
 Generated NRdTot=       0 NPtTot=           0 NUsed=           0 NTot=          32
 NSgBfM=   130   130   130   130   130 MxSgAt=     4 MxSgA2=     4.
 Leave Link  302 at Thu Mar 24 10:26:29 2022, MaxMem=  1073741824 cpu:               2.1 elap:               0.3
 (Enter /opt/GAUSSIAN/g16/l303.exe)
 DipDrv:  MaxL=1.
 Leave Link  303 at Thu Mar 24 10:26:29 2022, MaxMem=  1073741824 cpu:               0.4 elap:               0.1
 (Enter /opt/GAUSSIAN/g16/l401.exe)
 Initial guess from the checkpoint file:  "input.chk"
 B after Tr=     0.000000   -0.000000    0.000000
         Rot=    0.998408    0.000049    0.000026    0.056403 Ang=   6.47 deg.
 Guess basis will be translated and rotated to current coordinates.
 JPrj=2 DoOrth=T DoCkMO=T.
 Leave Link  401 at Thu Mar 24 10:26:29 2022, MaxMem=  1073741824 cpu:               1.4 elap:               0.2
 (Enter /opt/GAUSSIAN/g16/l502.exe)
 Keep J ints in memory in canonical form, NReq=29893243.
 FoFCou: FMM=F IPFlag=           0 FMFlag=           0 FMFlg1=           0
         NFxFlg=           0 DoJE=F BraDBF=F KetDBF=F FulRan=T
         wScrn=  0.000000 ICntrl=       600 IOpCl=  0 I1Cent=           0 NGrid=           0
         NMat0=    1 NMatS0=   6670 NMatT0=    0 NMatD0=    1 NMtDS0=    0 NMtDT0=    0
 Symmetry not used in FoFCou.
 Two-electron integral symmetry not used.
 Closed shell SCF:
 Using DIIS extrapolation, IDIIS=  1040.
 NGot=  1073741824 LenX=  1051457981 LenY=  1051440640
 Requested convergence on RMS density matrix=1.00D-08 within 128 cycles.
 Requested convergence on MAX density matrix=1.00D-06.
 Requested convergence on             energy=1.00D-06.
 No special actions if energy rises.

 Cycle   1  Pass 1  IDiag  1:
 E= -56.5553336827004    
 DIIS: error= 8.01D-04 at cycle   1 NSaved=   1.
 NSaved= 1 IEnMin= 1 EnMin= -56.5553336827004     IErMin= 1 ErrMin= 8.01D-04
 ErrMax= 8.01D-04  0.00D+00 EMaxC= 1.00D-01 BMatC= 3.45D-05 BMatP= 3.45D-05
 IDIUse=3 WtCom= 9.92D-01 WtEn= 8.01D-03
 Coeff-Com:  0.100D+01
 Coeff-En:   0.100D+01
 Coeff:      0.100D+01
 Gap=     0.370 Goal=   None    Shift=    0.000
 RMSDP=9.13D-05 MaxDP=3.64D-03              OVMax= 4.36D-03

 Cycle   2  Pass 1  IDiag  1:
 E= -56.5553659841047     Delta-E=       -0.000032301404 Rises=F Damp=F
 DIIS: error= 2.22D-04 at cycle   2 NSaved=   2.
 NSaved= 2 IEnMin= 2 EnMin= -56.5553659841047     IErMin= 2 ErrMin= 2.22D-04
 ErrMax= 2.22D-04  0.00D+00 EMaxC= 1.00D-01 BMatC= 2.83D-06 BMatP= 3.45D-05
 IDIUse=3 WtCom= 9.98D-01 WtEn= 2.22D-03
 Coeff-Com:  0.122D+00 0.878D+00
 Coeff-En:   0.000D+00 0.100D+01
 Coeff:      0.121D+00 0.879D+00
 Gap=     0.204 Goal=   None    Shift=    0.000
 RMSDP=1.25D-05 MaxDP=4.75D-04 DE=-3.23D-05 OVMax= 1.09D-03

 Cycle   3  Pass 1  IDiag  1:
 E= -56.5553670087650     Delta-E=       -0.000001024660 Rises=F Damp=F
 DIIS: error= 1.58D-04 at cycle   3 NSaved=   3.
 NSaved= 3 IEnMin= 3 EnMin= -56.5553670087650     IErMin= 3 ErrMin= 1.58D-04
 ErrMax= 1.58D-04  0.00D+00 EMaxC= 1.00D-01 BMatC= 1.66D-06 BMatP= 2.83D-06
 IDIUse=3 WtCom= 9.98D-01 WtEn= 1.58D-03
 Coeff-Com:  0.138D-01 0.427D+00 0.560D+00
 Coeff-En:   0.000D+00 0.352D+00 0.648D+00
 Coeff:      0.138D-01 0.426D+00 0.560D+00
 Gap=     0.204 Goal=   None    Shift=    0.000
 RMSDP=7.41D-06 MaxDP=1.82D-04 DE=-1.02D-06 OVMax= 6.40D-04

 Cycle   4  Pass 1  IDiag  1:
 E= -56.5553681224535     Delta-E=       -0.000001113689 Rises=F Damp=F
 DIIS: error= 8.31D-05 at cycle   4 NSaved=   4.
 NSaved= 4 IEnMin= 4 EnMin= -56.5553681224535     IErMin= 4 ErrMin= 8.31D-05
 ErrMax= 8.31D-05  0.00D+00 EMaxC= 1.00D-01 BMatC= 3.99D-07 BMatP= 1.66D-06
 IDIUse=1 WtCom= 1.00D+00 WtEn= 0.00D+00
 Coeff-Com: -0.989D-03 0.191D+00 0.363D+00 0.447D+00
 Coeff:     -0.989D-03 0.191D+00 0.363D+00 0.447D+00
 Gap=     0.204 Goal=   None    Shift=    0.000
 RMSDP=2.71D-06 MaxDP=6.28D-05 DE=-1.11D-06 OVMax= 2.04D-04

 Cycle   5  Pass 1  IDiag  1:
 E= -56.5553684469395     Delta-E=       -0.000000324486 Rises=F Damp=F
 DIIS: error= 7.66D-07 at cycle   5 NSaved=   5.
 NSaved= 5 IEnMin= 5 EnMin= -56.5553684469395     IErMin= 5 ErrMin= 7.66D-07
 ErrMax= 7.66D-07  0.00D+00 EMaxC= 1.00D-01 BMatC= 3.33D-11 BMatP= 3.99D-07
 IDIUse=1 WtCom= 1.00D+00 WtEn= 0.00D+00
 Coeff-Com:  0.507D-04-0.504D-02-0.429D-02-0.719D-02 0.102D+01
 Coeff:      0.507D-04-0.504D-02-0.429D-02-0.719D-02 0.102D+01
 Gap=     0.204 Goal=   None    Shift=    0.000
 RMSDP=1.59D-07 MaxDP=5.26D-06 DE=-3.24D-07 OVMax= 2.50D-06

 Cycle   6  Pass 1  IDiag  1:
 E= -56.5553684469745     Delta-E=       -0.000000000035 Rises=F Damp=F
 DIIS: error= 1.17D-07 at cycle   6 NSaved=   6.
 NSaved= 6 IEnMin= 6 EnMin= -56.5553684469745     IErMin= 6 ErrMin= 1.17D-07
 ErrMax= 1.17D-07  0.00D+00 EMaxC= 1.00D-01 BMatC= 8.10D-13 BMatP= 3.33D-11
 IDIUse=1 WtCom= 1.00D+00 WtEn= 0.00D+00
 Coeff-Com:  0.460D-05-0.259D-02-0.462D-02-0.506D-02 0.120D+00 0.892D+00
 Coeff:      0.460D-05-0.259D-02-0.462D-02-0.506D-02 0.120D+00 0.892D+00
 Gap=     0.204 Goal=   None    Shift=    0.000
 RMSDP=1.18D-08 MaxDP=5.24D-07 DE=-3.50D-11 OVMax= 4.90D-07

 Cycle   7  Pass 1  IDiag  1:
 E= -56.5553684469756     Delta-E=       -0.000000000001 Rises=F Damp=F
 DIIS: error= 9.19D-09 at cycle   7 NSaved=   7.
 NSaved= 7 IEnMin= 7 EnMin= -56.5553684469756     IErMin= 7 ErrMin= 9.19D-09
 ErrMax= 9.19D-09  0.00D+00 EMaxC= 1.00D-01 BMatC= 4.35D-15 BMatP= 8.10D-13
 IDIUse=1 WtCom= 1.00D+00 WtEn= 0.00D+00
 Coeff-Com:  0.691D-06-0.378D-03-0.690D-03-0.741D-03 0.146D-01 0.144D+00
 Coeff-Com:  0.843D+00
 Coeff:      0.691D-06-0.378D-03-0.690D-03-0.741D-03 0.146D-01 0.144D+00
 Coeff:      0.843D+00
 Gap=     0.204 Goal=   None    Shift=    0.000
 RMSDP=6.14D-10 MaxDP=1.66D-08 DE=-1.14D-12 OVMax= 4.12D-08

 SCF Done:  E(RB97D3) =  -56.5553684470     A.U. after    7 cycles
            NFock=  7  Conv=0.61D-09     -V/T= 2.0062
 KE= 5.620632037046D+01 PE=-1.557984619489D+02 EE= 3.114144541004D+01
 Leave Link  502 at Thu Mar 24 10:26:33 2022, MaxMem=  1073741824 cpu:              26.1 elap:               3.9
 (Enter /opt/GAUSSIAN/g16/l701.exe)
 ... and contract with generalized density number  0.
 Compute integral first derivatives.
 R6Disp: Adding Grimme-D3(BJ) dispersion energy 1st derivatives to the gradient.
 Leave Link  701 at Thu Mar 24 10:26:34 2022, MaxMem=  1073741824 cpu:               2.7 elap:               0.4
 (Enter /opt/GAUSSIAN/g16/l702.exe)
 L702 exits ... SP integral derivatives will be done elsewhere.
 Leave Link  702 at Thu Mar 24 10:26:34 2022, MaxMem=  1073741824 cpu:               0.3 elap:               0.1
 (Enter /opt/GAUSSIAN/g16/l703.exe)
 Integral derivatives from FoFJK, PRISM(SPDF).
 Compute integral first derivatives, UseDBF=F ICtDFT=           0.
 Calling FoFJK, ICntrl=      2527 FMM=F ISym2X=0 I1Cent= 0 IOpClX= 0 NMat=1 NMatS=1 NMatT=0.
 FoFJK:  IHMeth= 1 ICntrl=    2527 DoSepK=F KAlg= 0 I1Cent=           0 FoldK=F
 IRaf=         0 NMat=       1 IRICut=       1 DoRegI=T DoRafI=F ISym2E= 0 IDoP0=0 IntGTp=1.
 FoFCou: FMM=F IPFlag=           0 FMFlag=      100000 FMFlg1=         800
         NFxFlg=           0 DoJE=F BraDBF=F KetDBF=F FulRan=T
         wScrn=  0.000000 ICntrl=      2527 IOpCl=  0 I1Cent=           0 NGrid=           0
         NMat0=    1 NMatS0=      1 NMatT0=    0 NMatD0=    1 NMtDS0=    0 NMtDT0=    0
 Symmetry not used in FoFCou.
 Leave Link  703 at Thu Mar 24 10:26:37 2022, MaxMem=  1073741824 cpu:              24.2 elap:               3.1
 (Enter /opt/GAUSSIAN/g16/l716.exe)
 Dipole        =-3.02492543D-05-1.09167375D-04 5.82667362D-01
 ***** Axes restored to original set *****
 -------------------------------------------------------------------
 Center     Atomic                   Forces (Hartrees/Bohr)
 Number     Number              X              Y              Z
 -------------------------------------------------------------------
      1        7           0.000053223    0.000023004    0.000004937
      2        1          -0.000043613    0.000014423   -0.000047773
      3        1          -0.000036502   -0.000061907    0.000008118
      4        1           0.000026892    0.000024480    0.000034717
 -------------------------------------------------------------------
 Cartesian Forces:  Max     0.000061907 RMS     0.000035983
 Leave Link  716 at Thu Mar 24 10:26:37 2022, MaxMem=  1073741824 cpu:               0.3 elap:               0.1
 (Enter /opt/GAUSSIAN/g16/l103.exe)

 GradGradGradGradGradGradGradGradGradGradGradGradGradGradGradGradGradGrad
 Berny optimization.
 Using GEDIIS/GDIIS optimizer.
 FormGI is forming the generalized inverse of G from B-inverse, IUseBI=4.
 Internal  Forces:  Max     0.000066640 RMS     0.000046495
 Search for a local minimum.
 Step number   3 out of a maximum of   20
 All quantities printed in internal units (Hartrees-Bohrs-Radians)
 RMS Force = .46495D-04 SwitMx=.10000D-02 MixMth= 2
 Mixed Optimization -- En-DIIS/RFO-DIIS
 Swapping is turned off.
 Update second derivatives using D2CorX and points    1    2    3
 DE= -2.12D-05 DEPred=-2.22D-05 R= 9.58D-01
 TightC=F SS=  1.41D+00  RLast= 3.13D-02 DXNew= 5.0454D-01 9.3977D-02
 Trust test= 9.58D-01 RLast= 3.13D-02 DXMaxT set to 3.00D-01
 The second derivative matrix:
                          R1        R2        R3        A1        A2
           R1           0.44438
           R2          -0.01092   0.44432
           R3          -0.01053  -0.01052   0.44535
           A1           0.04424   0.04350   0.04516   0.12956
           A2           0.02693   0.02661   0.02712  -0.03437   0.13207
           A3           0.02740   0.02706   0.02762  -0.03259  -0.02723
           D1           0.01916   0.01866   0.02009   0.00585  -0.00682
                          A3        D1
           A3           0.13353
           D1          -0.00555   0.02383
 ITU=  1  1  0
     Eigenvalues ---    0.04024   0.15199   0.16003   0.42784   0.45527
     Eigenvalues ---    0.45543
 En-DIIS/RFO-DIIS/Sim-DIIS IScMMF=       -3 using points:     3    2
 RFO step:  Lambda=-7.05585128D-08.
 NNeg= 0 NGDIIS= 2 SimSw=  2.50D-03 Rises=F DC= -2.12D-05 SmlDif=  1.00D-05
 NRisDI= 0 DoIntr=F SqrtH=F CThrHd= 10.0 CDAdj=  3.0
 RMS Error=  0.3764780674D-03 NUsed= 2 OKEnD=T EnDIS=F
 InvSVX:  RCond= 1.10D-03 Info=           0 Equed=N FErr=  9.14D-16 BErr=  0.00D+00
 DidBck=F Rises=F RFO-DIIS coefs:    0.97093    0.02907
 Iteration  1 RMS(Cart)=  0.00030845 RMS(Int)=  0.00000275
 Iteration  2 RMS(Cart)=  0.00000008 RMS(Int)=  0.00000274
 ITry= 1 IFail=0 DXMaxC= 3.46D-04 DCOld= 1.00D+10 DXMaxT= 3.00D-01 DXLimC= 3.00D+00 Rises=F
 Variable       Old X    -DE/DX   Delta X   Delta X   Delta X     New X
                                 (Linear)    (Quad)   (Total)
    R1        1.92249   0.00006  -0.00010   0.00018   0.00008   1.92257
    R2        1.92247   0.00007  -0.00010   0.00020   0.00010   1.92257
    R3        1.92256   0.00003  -0.00010   0.00013   0.00003   1.92259
    A1        1.85622  -0.00001   0.00034  -0.00014   0.00020   1.85642
    A2        1.85587   0.00006   0.00033   0.00019   0.00053   1.85640
    A3        1.85594   0.00005   0.00032   0.00014   0.00046   1.85640
    D1       -1.97323  -0.00003  -0.00069   0.00002  -0.00067  -1.97390
         Item               Value     Threshold  Converged?
 Maximum Force            0.000067     0.000450     YES
 RMS     Force            0.000046     0.000300     YES
 Maximum Displacement     0.000346     0.001800     YES
 RMS     Displacement     0.000308     0.001200     YES
 Predicted change in Energy=-3.932696D-08
 Optimization completed.
    -- Stationary point found.
                           ----------------------------
                           !   Optimized Parameters   !
                           ! (Angstroms and Degrees)  !
 --------------------------                            --------------------------
 ! Name  Definition              Value          Derivative Info.                !
 --------------------------------------------------------------------------------
 ! R1    R(1,2)                  1.0173         -DE/DX =    0.0001              !
 ! R2    R(1,3)                  1.0173         -DE/DX =    0.0001              !
 ! R3    R(1,4)                  1.0174         -DE/DX =    0.0                 !
 ! A1    A(2,1,3)              106.3537         -DE/DX =    0.0                 !
 ! A2    A(2,1,4)              106.3337         -DE/DX =    0.0001              !
 ! A3    A(3,1,4)              106.3375         -DE/DX =    0.0                 !
 ! D1    D(2,1,4,3)           -113.0577         -DE/DX =    0.0                 !
 --------------------------------------------------------------------------------
 Lowest energy point so far.  Saving SCF results.
 Largest change from initial coordinates is atom    4       0.714 Angstoms.
 GradGradGradGradGradGradGradGradGradGradGradGradGradGradGradGradGradGrad

 Leave Link  103 at Thu Mar 24 10:26:37 2022, MaxMem=  1073741824 cpu:               0.5 elap:               0.1
 (Enter /opt/GAUSSIAN/g16/l202.exe)
                          Input orientation:                          
 ---------------------------------------------------------------------
 Center     Atomic      Atomic             Coordinates (Angstroms)
 Number     Number       Type             X           Y           Z
 ---------------------------------------------------------------------
      1          7           0       14.647770    6.862001   -3.530641
      2          1           0       14.445121    7.114823   -4.495004
      3          1           0       14.511663    5.856053   -3.463584
      4          1           0       15.642645    7.025860   -3.394909
 ---------------------------------------------------------------------
                    Distance matrix (angstroms):
                    1          2          3          4
     1  N    0.000000
     2  H    1.017339   0.000000
     3  H    1.017326   1.628728   0.000000
     4  H    1.017374   1.628553   1.628583   0.000000
 Stoichiometry    H3N
 Framework group  C1[X(H3N)]
 Deg. of freedom     6
 Full point group                 C1      NOp   1
 RotChk:  IX=3 Diff= 2.83D-16
 Largest Abelian subgroup         C1      NOp   1
 Largest concise Abelian subgroup C1      NOp   1
                         Standard orientation:                         
 ---------------------------------------------------------------------
 Center     Atomic      Atomic             Coordinates (Angstroms)
 Number     Number       Type             X           Y           Z
 ---------------------------------------------------------------------
      1          7           0        0.000010    0.000035   -0.116521
      2          1           0       -0.774541    0.533115    0.271906
      3          1           0        0.849060    0.403983    0.271929
      4          1           0       -0.074588   -0.937344    0.271814
 ---------------------------------------------------------------------
 Rotational constants (GHZ):         295.2798888         295.2187915         189.0565622
 Leave Link  202 at Thu Mar 24 10:26:37 2022, MaxMem=  1073741824 cpu:               0.2 elap:               0.1
 (Enter /opt/GAUSSIAN/g16/l601.exe)
 Copying SCF densities to generalized density rwf, IOpCl= 0 IROHF=0.

 **********************************************************************

            Population analysis using the SCF Density.

 **********************************************************************

 Orbital symmetries:
       Occupied  (A) (A) (A) (A) (A)
       Virtual   (A) (A) (A) (A) (A) (A) (A) (A) (A) (A) (A) (A)
                 (A) (A) (A) (A) (A) (A) (A) (A) (A) (A) (A) (A)
                 (A) (A) (A) (A) (A) (A) (A) (A) (A) (A) (A) (A)
                 (A) (A) (A) (A) (A) (A) (A) (A) (A) (A) (A) (A)
                 (A) (A) (A) (A) (A) (A) (A) (A) (A) (A) (A) (A)
                 (A) (A) (A) (A) (A) (A) (A) (A) (A) (A) (A) (A)
                 (A) (A) (A) (A) (A) (A) (A) (A) (A) (A) (A) (A)
                 (A) (A) (A) (A) (A) (A) (A) (A) (A) (A) (A) (A)
                 (A) (A) (A) (A) (A) (A) (A) (A) (A) (A) (A) (A)
                 (A) (A)
 The electronic state is 1-A.
 Alpha  occ. eigenvalues --  -13.97789  -0.78107  -0.41496  -0.41491  -0.22826
 Alpha virt. eigenvalues --   -0.02413   0.02178   0.02178   0.06361   0.08414
 Alpha virt. eigenvalues --    0.11109   0.11110   0.11663   0.11664   0.15654
 Alpha virt. eigenvalues --    0.15655   0.16534   0.25915   0.28738   0.29564
 Alpha virt. eigenvalues --    0.29564   0.32193   0.32195   0.32312   0.38192
 Alpha virt. eigenvalues --    0.38192   0.43594   0.46569   0.46571   0.56858
 Alpha virt. eigenvalues --    0.61053   0.61056   0.64716   0.70542   0.76570
 Alpha virt. eigenvalues --    0.76663   0.76665   0.81571   0.81572   0.87017
 Alpha virt. eigenvalues --    0.88862   0.88864   0.94462   0.94861   0.94863
 Alpha virt. eigenvalues --    0.99145   0.99145   1.02006   1.06106   1.06110
 Alpha virt. eigenvalues --    1.11508   1.15775   1.15779   1.37980   1.50752
 Alpha virt. eigenvalues --    1.50755   1.52202   1.58753   1.59978   1.59980
 Alpha virt. eigenvalues --    1.73059   1.74695   1.74702   1.79454   1.79457
 Alpha virt. eigenvalues --    1.96699   2.08455   2.09183   2.09184   2.13196
 Alpha virt. eigenvalues --    2.13199   2.14396   2.97452   3.14411   3.14411
 Alpha virt. eigenvalues --    3.55897   3.59167   3.59173   3.75750   3.75753
 Alpha virt. eigenvalues --    3.78222   3.82162   3.82167   3.84770   3.92826
 Alpha virt. eigenvalues --    3.92830   3.92863   4.07232   4.09644   4.09646
 Alpha virt. eigenvalues --    4.24728   4.30426   4.30429   4.55654   4.55660
 Alpha virt. eigenvalues --    4.60393   4.61305   4.61307   4.61330   4.76540
 Alpha virt. eigenvalues --    5.15046   5.15058   5.22982   5.38123   5.38134
 Alpha virt. eigenvalues --    5.49112   5.83004   5.83039   5.89035   6.08031
 Alpha virt. eigenvalues --    6.40510   6.40525   7.11760   7.11769  16.12775
          Condensed to atoms (all electrons):
               1          2          3          4
     1  N    6.471526   0.306548   0.306553   0.306537
     2  H    0.306548   0.576352  -0.006646  -0.006638
     3  H    0.306553  -0.006646   0.576355  -0.006640
     4  H    0.306537  -0.006638  -0.006640   0.576338
 Mulliken charges:
               1
     1  N   -0.391164
     2  H    0.130384
     3  H    0.130378
     4  H    0.130403
 Sum of Mulliken charges =  -0.00000
 Mulliken charges with hydrogens summed into heavy atoms:
               1
     1  N   -0.000000
 Electronic spatial extent (au):  <R**2>=             27.1619
 Charge=             -0.0000 electrons
 Dipole moment (field-independent basis, Debye):
    X=             -0.0001    Y=             -0.0003    Z=              1.4810  Tot=              1.4810
 Quadrupole moment (field-independent basis, Debye-Ang):
   XX=             -6.4025   YY=             -6.4034   ZZ=             -9.4661
   XY=              0.0000   XZ=              0.0000   YZ=              0.0002
 Traceless Quadrupole moment (field-independent basis, Debye-Ang):
   XX=              1.0215   YY=              1.0206   ZZ=             -2.0421
   XY=              0.0000   XZ=              0.0000   YZ=              0.0002
 Octapole moment (field-independent basis, Debye-Ang**2):
  XXX=              0.2139  YYY=             -0.8818  ZZZ=              1.1039  XYY=             -0.2140
  XXY=              0.8814  XXZ=              0.7942  XZZ=              0.0000  YZZ=              0.0000
  YYZ=              0.7939  XYZ=              0.0000
 Hexadecapole moment (field-independent basis, Debye-Ang**3):
 XXXX=            -10.8997 YYYY=            -10.9002 ZZZZ=            -13.9013 XXXY=             -0.0001
 XXXZ=              0.0743 YYYX=              0.0001 YYYZ=             -0.3056 ZZZX=              0.0001
 ZZZY=              0.0003 XXYY=             -3.6336 XXZZ=             -4.3070 YYZZ=             -4.3071
 XXYZ=              0.3060 YYXZ=             -0.0742 ZZXY=              0.0000
 N-N= 1.189532772140D+01 E-N=-1.557984619784D+02  KE= 5.620632037046D+01
 No NMR shielding tensors so no spin-rotation constants.
 Leave Link  601 at Thu Mar 24 10:26:37 2022, MaxMem=  1073741824 cpu:               1.7 elap:               0.3
 (Enter /opt/GAUSSIAN/g16/l9999.exe)
 1\1\GINC-NODE32\FOpt\RB97D3\Aug-CC-pVTZ\H3N1\TINACCI\24-Mar-2022\0\\#P
  opt B97D3/aug-cc-pvtz freq(noraman)\\Title\\0,1\N,14.6477698621,6.862
 0012347,-3.5306414977\H,14.4451209528,7.1148228172,-4.4950035602\H,14.
 5116633412,5.85605329,-3.4635840298\H,15.6426448439,7.0258596581,-3.39
 49089123\\Version=ES64L-G16RevB.01\State=1-A\HF=-56.5553684\RMSD=6.135
 e-10\RMSF=3.598e-05\Dipole=0.3280385,-0.2947016,-0.3808451\Quadrupole=
 0.0373502,0.1765516,-0.2139018,0.6483702,0.8377936,-0.7532375\PG=C01 [
 X(H3N1)]\\@


 AN AIRPLANE IS A COLLECTION OF SPARE PARTS
 FLYING IN CLOSE FORMATION.
 Leave Link 9999 at Thu Mar 24 10:26:38 2022, MaxMem=  1073741824 cpu:               1.4 elap:               0.4
 Job cpu time:       0 days  0 hours  4 minutes 35.4 seconds.
 Elapsed time:       0 days  0 hours  0 minutes 50.9 seconds.
 File lengths (MBytes):  RWF=     10 Int=      0 D2E=      0 Chk=      2 Scr=      1
 Normal termination of Gaussian 16 at Thu Mar 24 10:26:38 2022.
 (Enter /opt/GAUSSIAN/g16/l1.exe)
 Link1:  Proceeding to internal job step number  2.
 ----------------------------------------------------------------------
 #P Geom=AllCheck Guess=TCheck SCRF=Check GenChk RB97D3/Aug-CC-pVTZ Fre
 q
 ----------------------------------------------------------------------
 1/10=4,29=7,30=1,38=1,40=1/1,3;
 2/12=2,40=1/2;
 3/5=16,6=1,7=10,11=2,14=-4,25=1,30=1,70=2,71=2,74=-59,116=1,140=1/1,2,3;
 4/5=101/1;
 5/5=2,38=6,98=1/2;
 8/6=4,10=90,11=11/1;
 11/6=1,8=1,9=11,15=111,16=1/1,2,10;
 10/6=1/2;
 6/7=2,8=2,9=2,10=2,28=1/1;
 7/8=1,10=1,25=1/1,2,3,16;
 1/10=4,30=1/3;
 99//99;
 Leave Link    1 at Thu Mar 24 10:26:38 2022, MaxMem=  1073741824 cpu:               0.3 elap:               0.0
 (Enter /opt/GAUSSIAN/g16/l101.exe)
 Structure from the checkpoint file:  "input.chk"
 -----
 Title
 -----
 Charge =  0 Multiplicity = 1
 Redundant internal coordinates found in file.  (old form).
 N,0,14.6477698621,6.8620012347,-3.5306414977
 H,0,14.4451209528,7.1148228172,-4.4950035602
 H,0,14.5116633412,5.85605329,-3.4635840298
 H,0,15.6426448439,7.0258596581,-3.3949089123
 Recover connectivity data from disk.
 ITRead=  0  0  0  0
 MicOpt= -1 -1 -1 -1
 NAtoms=      4 NQM=        4 NQMF=       0 NMMI=      0 NMMIF=      0
                NMic=       0 NMicF=      0.
                    Isotopes and Nuclear Properties:
 (Nuclear quadrupole moments (NQMom) in fm**2, nuclear magnetic moments (NMagM)
  in nuclear magnetons)

  Atom         1           2           3           4
 IAtWgt=          14           1           1           1
 AtmWgt=  14.0030740   1.0078250   1.0078250   1.0078250
 NucSpn=           2           1           1           1
 AtZEff=   4.5500000   1.0000000   1.0000000   1.0000000
 NQMom=    2.0440000   0.0000000   0.0000000   0.0000000
 NMagM=    0.4037610   2.7928460   2.7928460   2.7928460
 AtZNuc=   7.0000000   1.0000000   1.0000000   1.0000000
 Leave Link  101 at Thu Mar 24 10:26:39 2022, MaxMem=  1073741824 cpu:               3.5 elap:               0.5
 (Enter /opt/GAUSSIAN/g16/l103.exe)

 GradGradGradGradGradGradGradGradGradGradGradGradGradGradGradGradGradGrad
 Berny optimization.
 Initialization pass.
                           ----------------------------
                           !    Initial Parameters    !
                           ! (Angstroms and Degrees)  !
 --------------------------                            --------------------------
 ! Name  Definition              Value          Derivative Info.                !
 --------------------------------------------------------------------------------
 ! R1    R(1,2)                  1.0173         calculate D2E/DX2 analytically  !
 ! R2    R(1,3)                  1.0173         calculate D2E/DX2 analytically  !
 ! R3    R(1,4)                  1.0174         calculate D2E/DX2 analytically  !
 ! A1    A(2,1,3)              106.3537         calculate D2E/DX2 analytically  !
 ! A2    A(2,1,4)              106.3337         calculate D2E/DX2 analytically  !
 ! A3    A(3,1,4)              106.3375         calculate D2E/DX2 analytically  !
 ! D1    D(2,1,4,3)           -113.0577         calculate D2E/DX2 analytically  !
 --------------------------------------------------------------------------------
 Trust Radius=3.00D-01 FncErr=1.00D-07 GrdErr=1.00D-07 EigMax=2.50D+02 EigMin=1.00D-04
 Number of steps in this run=      2 maximum allowed number of steps=      2.
 GradGradGradGradGradGradGradGradGradGradGradGradGradGradGradGradGradGrad

 Leave Link  103 at Thu Mar 24 10:26:39 2022, MaxMem=  1073741824 cpu:               0.2 elap:               0.1
 (Enter /opt/GAUSSIAN/g16/l202.exe)
                          Input orientation:                          
 ---------------------------------------------------------------------
 Center     Atomic      Atomic             Coordinates (Angstroms)
 Number     Number       Type             X           Y           Z
 ---------------------------------------------------------------------
      1          7           0       14.647770    6.862001   -3.530641
      2          1           0       14.445121    7.114823   -4.495004
      3          1           0       14.511663    5.856053   -3.463584
      4          1           0       15.642645    7.025860   -3.394909
 ---------------------------------------------------------------------
                    Distance matrix (angstroms):
                    1          2          3          4
     1  N    0.000000
     2  H    1.017339   0.000000
     3  H    1.017326   1.628728   0.000000
     4  H    1.017374   1.628553   1.628583   0.000000
 Stoichiometry    H3N
 Framework group  C1[X(H3N)]
 Deg. of freedom     6
 Full point group                 C1      NOp   1
 RotChk:  IX=3 Diff= 2.83D-16
 Largest Abelian subgroup         C1      NOp   1
 Largest concise Abelian subgroup C1      NOp   1
                         Standard orientation:                         
 ---------------------------------------------------------------------
 Center     Atomic      Atomic             Coordinates (Angstroms)
 Number     Number       Type             X           Y           Z
 ---------------------------------------------------------------------
      1          7           0        0.000010    0.000035   -0.116521
      2          1           0       -0.774541    0.533115    0.271906
      3          1           0        0.849060    0.403983    0.271929
      4          1           0       -0.074588   -0.937344    0.271814
 ---------------------------------------------------------------------
 Rotational constants (GHZ):         295.2798888         295.2187915         189.0565622
 Leave Link  202 at Thu Mar 24 10:26:39 2022, MaxMem=  1073741824 cpu:               0.2 elap:               0.1
 (Enter /opt/GAUSSIAN/g16/l301.exe)
 Standard basis: Aug-CC-pVTZ (5D, 7F)
 Ernie: Thresh=  0.10000D-02 Tol=  0.10000D-05 Strict=F.
 Ernie:  3 primitive shells out of 63 were deleted.
 There are   130 symmetry adapted cartesian basis functions of A   symmetry.
 There are   115 symmetry adapted basis functions of A   symmetry.
   115 basis functions,   153 primitive gaussians,   130 cartesian basis functions
     5 alpha electrons        5 beta electrons
       nuclear repulsion energy        11.8980117618 Hartrees.
 IExCor= 3630 DFT=T Ex+Corr=B97D3 ExCW=0 ScaHFX=  0.000000
 ScaDFX=  1.000000  1.000000  1.000000  1.000000 ScalE2=  1.000000  1.000000
 IRadAn=      5 IRanWt=     -1 IRanGd=            0 ICorTp=0 IEmpDi=141
 NAtoms=    4 NActive=    4 NUniq=    4 SFac= 1.00D+00 NAtFMM=   60 NAOKFM=F Big=F
 Integral buffers will be    131072 words long.
 Raffenetti 2 integral format.
 Two-electron integral symmetry is turned on.
 R6Disp:  Grimme-D3(BJ) Dispersion energy=       -0.0026840404 Hartrees.
 Nuclear repulsion after empirical dispersion term =       11.8953277214 Hartrees.
 Leave Link  301 at Thu Mar 24 10:26:39 2022, MaxMem=  1073741824 cpu:               0.8 elap:               0.1
 (Enter /opt/GAUSSIAN/g16/l302.exe)
 NPDir=0 NMtPBC=     1 NCelOv=     1 NCel=       1 NClECP=     1 NCelD=      1
         NCelK=      1 NCelE2=     1 NClLst=     1 CellRange=     0.0.
 One-electron integrals computed using PRISM.
 One-electron integral symmetry used in STVInt
 NBasis=   115 RedAO= T EigKep=  2.73D-04  NBF=   115
 NBsUse=   115 1.00D-06 EigRej= -1.00D+00 NBFU=   115
 Precomputing XC quadrature grid using
 IXCGrd= 4 IRadAn=           5 IRanWt=          -1 IRanGd=           0 AccXCQ= 0.00D+00.
 Generated NRdTot=       0 NPtTot=           0 NUsed=           0 NTot=          32
 NSgBfM=   130   130   130   130   130 MxSgAt=     4 MxSgA2=     4.
 Leave Link  302 at Thu Mar 24 10:26:39 2022, MaxMem=  1073741824 cpu:               2.1 elap:               0.3
 (Enter /opt/GAUSSIAN/g16/l303.exe)
 DipDrv:  MaxL=1.
 Leave Link  303 at Thu Mar 24 10:26:39 2022, MaxMem=  1073741824 cpu:               0.4 elap:               0.1
 (Enter /opt/GAUSSIAN/g16/l401.exe)
 Initial guess from the checkpoint file:  "input.chk"
 B after Tr=     0.000000    0.000000    0.000000
         Rot=    1.000000    0.000000    0.000000    0.000000 Ang=   0.00 deg.
 Guess basis will be translated and rotated to current coordinates.
 JPrj=2 DoOrth=T DoCkMO=T.
 Leave Link  401 at Thu Mar 24 10:26:40 2022, MaxMem=  1073741824 cpu:               1.5 elap:               0.2
 (Enter /opt/GAUSSIAN/g16/l502.exe)
 Keep J ints in memory in canonical form, NReq=29893243.
 FoFCou: FMM=F IPFlag=           0 FMFlag=           0 FMFlg1=           0
         NFxFlg=           0 DoJE=F BraDBF=F KetDBF=F FulRan=T
         wScrn=  0.000000 ICntrl=       600 IOpCl=  0 I1Cent=           0 NGrid=           0
         NMat0=    1 NMatS0=   6670 NMatT0=    0 NMatD0=    1 NMtDS0=    0 NMtDT0=    0
 Symmetry not used in FoFCou.
 Two-electron integral symmetry not used.
 Closed shell SCF:
 Using DIIS extrapolation, IDIIS=  1040.
 NGot=  1073741824 LenX=  1051457981 LenY=  1051440640
 Requested convergence on RMS density matrix=1.00D-08 within 128 cycles.
 Requested convergence on MAX density matrix=1.00D-06.
 Requested convergence on             energy=1.00D-06.
 No special actions if energy rises.

 Cycle   1  Pass 1  IDiag  1:
 E= -56.5553684469756    
 DIIS: error= 4.37D-09 at cycle   1 NSaved=   1.
 NSaved= 1 IEnMin= 1 EnMin= -56.5553684469756     IErMin= 1 ErrMin= 4.37D-09
 ErrMax= 4.37D-09  0.00D+00 EMaxC= 1.00D-01 BMatC= 9.63D-16 BMatP= 9.63D-16
 IDIUse=1 WtCom= 1.00D+00 WtEn= 0.00D+00
 Coeff-Com:  0.100D+01
 Coeff:      0.100D+01
 Gap=     0.204 Goal=   None    Shift=    0.000
 RMSDP=2.83D-10 MaxDP=7.65D-09              OVMax= 2.35D-08

 SCF Done:  E(RB97D3) =  -56.5553684470     A.U. after    1 cycles
            NFock=  1  Conv=0.28D-09     -V/T= 2.0062
 KE= 5.620632032191D+01 PE=-1.557984619298D+02 EE= 3.114144543954D+01
 Leave Link  502 at Thu Mar 24 10:26:41 2022, MaxMem=  1073741824 cpu:               9.5 elap:               1.3
 (Enter /opt/GAUSSIAN/g16/l801.exe)
 DoSCS=F DFT=T ScalE2(SS,OS)=  1.000000  1.000000
 Range of M.O.s used for correlation:     1   115
 NBasis=   115 NAE=     5 NBE=     5 NFC=     0 NFV=     0
 NROrb=    115 NOA=     5 NOB=     5 NVA=   110 NVB=   110

 **** Warning!!: The largest alpha MO coefficient is  0.18878430D+02

 Leave Link  801 at Thu Mar 24 10:26:42 2022, MaxMem=  1073741824 cpu:               0.4 elap:               0.3
 (Enter /opt/GAUSSIAN/g16/l1101.exe)
 Using compressed storage, NAtomX=     4.
 Will process      5 centers per pass.
 R6Disp: Adding Grimme-D3(BJ) dispersion energy 1st derivatives to the gradient.
 Leave Link 1101 at Thu Mar 24 10:26:44 2022, MaxMem=  1073741824 cpu:               4.3 elap:               2.6
 (Enter /opt/GAUSSIAN/g16/l1102.exe)
 Symmetrizing basis deriv contribution to polar:
 IMax=3 JMax=2 DiffMx= 0.00D+00
 Leave Link 1102 at Thu Mar 24 10:26:51 2022, MaxMem=  1073741824 cpu:               8.6 elap:               5.1
 (Enter /opt/GAUSSIAN/g16/l1110.exe)
 Forming Gx(P) for the SCF density, NAtomX=     4.
[...]
 activities (A**4/AMU), depolarization ratios for plane and unpolarized
 incident light, reduced masses (AMU), force constants (mDyne/A),
 and normal coordinates:
                      1                      2                      3
                      A                      A                      A
 Frequencies --   1035.8416              1642.5685              1642.8135
 Red. masses --      1.1811                 1.0658                 1.0658
 Frc consts  --      0.7467                 1.6942                 1.6947
 IR Inten    --    120.7065                13.6766                13.6627
  Atom  AN      X      Y      Z        X      Y      Z        X      Y      Z
     1   7     0.00   0.00  -0.12     0.00  -0.07   0.00    -0.07  -0.00  -0.00
     2   1     0.17  -0.12   0.53     0.42   0.46   0.15     0.16   0.43  -0.21
     3   1    -0.19  -0.09   0.53    -0.35   0.60   0.11     0.02  -0.34   0.23
     4   1     0.02   0.21   0.53    -0.08  -0.13  -0.25     0.75  -0.07  -0.02
                      4                      5                      6
                      A                      A                      A
 Frequencies --   3397.8782              3522.6917              3523.1565
 Red. masses --      1.0264                 1.0887                 1.0887
 Frc consts  --      6.9820                 7.9600                 7.9623
 IR Inten    --      8.2347                 1.4499                 1.4622
  Atom  AN      X      Y      Z        X      Y      Z        X      Y      Z
     1   7    -0.00  -0.00   0.04     0.01  -0.08  -0.00    -0.08  -0.01  -0.00
     2   1     0.45  -0.31  -0.18    -0.41   0.26   0.19     0.47  -0.34  -0.23
     3   1    -0.50  -0.24  -0.17     0.25   0.09   0.11     0.64   0.31   0.28
     4   1     0.04   0.55  -0.18     0.06   0.74  -0.30    -0.01   0.13  -0.05

 -------------------
 - Thermochemistry -
 -------------------
 Temperature   298.150 Kelvin.  Pressure   1.00000 Atm.
 Atom     1 has atomic number  7 and mass  14.00307
 Atom     2 has atomic number  1 and mass   1.00783
 Atom     3 has atomic number  1 and mass   1.00783
 Atom     4 has atomic number  1 and mass   1.00783
 Molecular mass:    17.02655 amu.
 Principal axes and moments of inertia in atomic units:
                           1         2         3
     Eigenvalues --     6.11197   6.11323   9.54604
           X            1.00000  -0.00000   0.00000
           Y            0.00000   1.00000   0.00002
           Z           -0.00000  -0.00002   1.00000
 This molecule is an asymmetric top.
 Rotational symmetry number  1.
 Rotational temperatures (Kelvin)     14.17120    14.16827     9.07328
 Rotational constants (GHZ):         295.27989   295.21879   189.05656
 Zero-point vibrational energy      88314.0 (Joules/Mol)
                                   21.10756 (Kcal/Mol)
 Vibrational temperatures:   1490.34  2363.29  2363.64  4888.79  5068.37
          (Kelvin)           5069.04
 
 Zero-point correction=                           0.033637 (Hartree/Particle)
 Thermal correction to Energy=                    0.036507
 Thermal correction to Enthalpy=                  0.037451
 Thermal correction to Gibbs Free Energy=         0.014561
 Sum of electronic and zero-point Energies=            -56.521731
 Sum of electronic and thermal Energies=               -56.518861
 Sum of electronic and thermal Enthalpies=             -56.517917
 Sum of electronic and thermal Free Energies=          -56.540807
 
                     E (Thermal)             CV                S
                      KCal/Mol        Cal/Mol-Kelvin    Cal/Mol-Kelvin
 Total                   22.909              6.391             48.177
 Electronic               0.000              0.000              0.000
 Translational            0.889              2.981             34.441
 Rotational               0.889              2.981             13.642
 Vibrational             21.131              0.430              0.094
                       Q            Log10(Q)             Ln(Q)
 Total Bot       0.200648D-06         -6.697566        -15.421715
 Total V=0       0.594813D+09          8.774381         20.203758
 Vib (Bot)       0.339866D-15        -15.468693        -35.617981
 Vib (V=0)       0.100752D+01          0.003254          0.007492
 Electronic      0.100000D+01          0.000000          0.000000
 Translational   0.276149D+07          6.441144         14.831282
 Rotational      0.213788D+03          2.329983          5.364985
 
                                                                Title
                                                             IR Spectrum
 
      3   3                                                              1                     1                                     
      5   3                                                              6                     0                                     
      2   9                                                              4                     3                                     
      3   8                                                              3                     6                                     
 
      X   X                                                              X                     X                                     
                                                                         X                     X                                     
                                                                         X                     X                                     
                                                                         X                     X                                     
                                                                         X                     X                                     
                                                                                               X                                     
                                                                                               X                                     
                                                                                               X                                     
                                                                                               X                                     
                                                                                               X                                     
                                                                                               X                                     
                                                                                               X                                     
                                                                                               X                                     
                                                                                               X                                     
                                                                                               X                                     
                                                                                               X                                     
                                                                                               X                                     
                                                                                               X                                     
                                                                                               X                                     
                                                                                               X                                     
 
 ***** Axes restored to original set *****
 -------------------------------------------------------------------
 Center     Atomic                   Forces (Hartrees/Bohr)
 Number     Number              X              Y              Z
 -------------------------------------------------------------------
      1        7           0.000053221    0.000023019    0.000004925
      2        1          -0.000043611    0.000014421   -0.000047760
      3        1          -0.000036503   -0.000061919    0.000008118
      4        1           0.000026893    0.000024480    0.000034717
 -------------------------------------------------------------------
 Cartesian Forces:  Max     0.000061919 RMS     0.000035983
 Force constants in Cartesian coordinates: 
                1             2             3             4             5 
      1  0.483133D+00
      2  0.114248D+00  0.507858D+00
      3  0.147584D+00 -0.132762D+00  0.438988D+00
      4 -0.488167D-01 -0.442606D-02 -0.562017D-01  0.587504D-01
      5 -0.210592D-02 -0.591056D-01  0.727508D-01 -0.735525D-02  0.698132D-01
      6 -0.956114D-01  0.110853D+00 -0.368748D+00  0.883912D-01 -0.104646D+00
      7 -0.429062D-01 -0.317496D-01 -0.177163D-01 -0.954015D-04  0.984937D-02
      8 -0.688142D-01 -0.400073D+00  0.472382D-01 -0.118230D-03 -0.114855D-01
      9 -0.207088D-01  0.689267D-02 -0.337379D-01  0.715685D-02  0.399923D-01
     10 -0.391410D+00 -0.780724D-01 -0.736664D-01 -0.983832D-02 -0.388199D-03
     11 -0.433280D-01 -0.486796D-01  0.127727D-01  0.118995D-01  0.777948D-03
     12 -0.312643D-01  0.150161D-01 -0.365021D-01 -0.393464D-01 -0.809731D-02
                6             7             8             9            10 
      6  0.381710D+00
      7  0.142294D-02  0.503061D-01
      8 -0.604736D-02  0.633508D-01  0.419633D+00
      9 -0.521319D-02  0.118866D-01 -0.396775D-01  0.403772D-01
     10  0.579726D-02 -0.730449D-02  0.558157D-02  0.166533D-02  0.408553D+00
     11 -0.159829D-03 -0.414506D-01 -0.807486D-02 -0.720752D-02  0.728791D-01
     12 -0.774897D-02  0.440682D-02 -0.151337D-02 -0.142613D-02  0.662038D-01
               11            12 
     11  0.559765D-01
     12 -0.540537D-02  0.456772D-01
 FormGI is forming the generalized inverse of G from B-inverse, IUseBI=4.
 Force constants in internal coordinates: 
                1             2             3             4             5 
      1  0.433040D+00
      2 -0.213337D-02  0.433103D+00
      3 -0.211773D-02 -0.212383D-02  0.432945D+00
      4  0.827454D-02  0.827215D-02 -0.765723D-02  0.510429D-01
      5  0.201856D-01 -0.228227D-02  0.227649D-01 -0.399123D-01  0.129704D+00
      6 -0.228943D-02  0.202029D-01  0.227745D-01 -0.399073D-01 -0.205156D-01
      7 -0.173044D-01 -0.173115D-01 -0.115164D-01 -0.224187D-01 -0.320884D-02
                6             7 
      6  0.129703D+00
      7 -0.320681D-02  0.282320D-01
 Leave Link  716 at Thu Mar 24 10:27:47 2022, MaxMem=  1073741824 cpu:               3.4 elap:               0.5
 (Enter /opt/GAUSSIAN/g16/l103.exe)

 GradGradGradGradGradGradGradGradGradGradGradGradGradGradGradGradGradGrad
 Berny optimization.
 Red2BG is reusing G-inverse.
 Internal  Forces:  Max     0.000066652 RMS     0.000046495
 Search for a local minimum.
 Step number   1 out of a maximum of    2
 All quantities printed in internal units (Hartrees-Bohrs-Radians)
 Second derivative matrix not updated -- analytic derivatives used.
 The second derivative matrix:
                          R1        R2        R3        A1        A2
           R1           0.43304
           R2          -0.00213   0.43310
           R3          -0.00212  -0.00212   0.43295
           A1           0.00827   0.00827  -0.00766   0.05104
           A2           0.02019  -0.00228   0.02276  -0.03991   0.12970
           A3          -0.00229   0.02020   0.02277  -0.03991  -0.02052
           D1          -0.01730  -0.01731  -0.01152  -0.02242  -0.00321
                          A3        D1
           A3           0.12970
           D1          -0.00321   0.02823
 ITU=  0
     Eigenvalues ---    0.04092   0.14084   0.14846   0.43350   0.43697
     Eigenvalues ---    0.43709
 Angle between quadratic step and forces=  49.02 degrees.
 Linear search not attempted -- first point.
 Iteration  1 RMS(Cart)=  0.00029909 RMS(Int)=  0.00000016
 Iteration  2 RMS(Cart)=  0.00000008 RMS(Int)=  0.00000014
 ITry= 1 IFail=0 DXMaxC= 3.46D-04 DCOld= 1.00D+10 DXMaxT= 3.00D-01 DXLimC= 3.00D+00 Rises=F
 Variable       Old X    -DE/DX   Delta X   Delta X   Delta X     New X
                                 (Linear)    (Quad)   (Total)
    R1        1.92249   0.00006   0.00000   0.00008   0.00008   1.92258
    R2        1.92247   0.00007   0.00000   0.00011   0.00011   1.92258
    R3        1.92256   0.00003   0.00000   0.00002   0.00002   1.92257
    A1        1.85622  -0.00001   0.00000   0.00017   0.00017   1.85639
    A2        1.85587   0.00006   0.00000   0.00052   0.00052   1.85639
    A3        1.85594   0.00005   0.00000   0.00045   0.00045   1.85639
    D1       -1.97323  -0.00003   0.00000  -0.00062  -0.00062  -1.97385
         Item               Value     Threshold  Converged?
 Maximum Force            0.000067     0.000450     YES
 RMS     Force            0.000046     0.000300     YES
 Maximum Displacement     0.000346     0.001800     YES
 RMS     Displacement     0.000299     0.001200     YES
 Predicted change in Energy=-3.859321D-08
 Optimization completed.
    -- Stationary point found.
                           ----------------------------
                           !   Optimized Parameters   !
                           ! (Angstroms and Degrees)  !
 --------------------------                            --------------------------
 ! Name  Definition              Value          Derivative Info.                !
 --------------------------------------------------------------------------------
 ! R1    R(1,2)                  1.0173         -DE/DX =    0.0001              !
 ! R2    R(1,3)                  1.0173         -DE/DX =    0.0001              !
 ! R3    R(1,4)                  1.0174         -DE/DX =    0.0                 !
 ! A1    A(2,1,3)              106.3537         -DE/DX =    0.0                 !
 ! A2    A(2,1,4)              106.3337         -DE/DX =    0.0001              !
 ! A3    A(3,1,4)              106.3375         -DE/DX =    0.0                 !
 ! D1    D(2,1,4,3)           -113.0577         -DE/DX =    0.0                 !
 --------------------------------------------------------------------------------
 GradGradGradGradGradGradGradGradGradGradGradGradGradGradGradGradGradGrad

 Leave Link  103 at Thu Mar 24 10:27:47 2022, MaxMem=  1073741824 cpu:               0.3 elap:               0.1
 (Enter /opt/GAUSSIAN/g16/l9999.exe)

 ----------------------------------------------------------------------

 Electric dipole moment (input orientation):
 (Debye = 10**-18 statcoulomb cm , SI units = C m)
                  (au)            (Debye)         (10**-30 SI)
   Tot        0.582667D+00      0.148099D+01      0.494006D+01
   x          0.328038D+00      0.833791D+00      0.278123D+01
   y         -0.294701D+00     -0.749056D+00     -0.249858D+01
   z         -0.380845D+00     -0.968012D+00     -0.322894D+01

 Dipole polarizability, Alpha (input orientation).
 (esu units = cm**3 , SI units = C**2 m**2 J**-1)
 Alpha(0;0):
               (au)            (10**-24 esu)      (10**-40 SI)
   iso        0.151712D+02      0.224813D+01      0.250139D+01
   aniso      0.237469D+01      0.351893D+00      0.391534D+00
   xx         0.151322D+02      0.224236D+01      0.249496D+01
   yx        -0.676238D+00     -0.100208D+00     -0.111497D+00
   yy         0.149871D+02      0.222086D+01      0.247104D+01
   zx        -0.873844D+00     -0.129490D+00     -0.144077D+00
   zy         0.785011D+00      0.116327D+00      0.129431D+00
   zz         0.153942D+02      0.228119D+01      0.253816D+01

 ----------------------------------------------------------------------

 Dipole orientation:
     7         20.85126356        -19.10231205         13.38618018
     1         19.59799598        -20.36194598         14.12008869
     1         20.38735937        -17.38704010         14.12001881
     1         22.56867032        -19.55806629         14.12036661

 Electric dipole moment (dipole orientation):
 (Debye = 10**-18 statcoulomb cm , SI units = C m)
                  (au)            (Debye)         (10**-30 SI)
   Tot        0.582667D+00      0.148099D+01      0.494006D+01
   x          0.000000D+00      0.000000D+00      0.000000D+00
   y          0.000000D+00      0.000000D+00      0.000000D+00
   z          0.582667D+00      0.148099D+01      0.494006D+01

 Dipole polarizability, Alpha (dipole orientation).
 (esu units = cm**3 , SI units = C**2 m**2 J**-1)
 Alpha(0;0):
               (au)            (10**-24 esu)      (10**-40 SI)
   iso        0.151712D+02      0.224813D+01      0.250139D+01
   aniso      0.237469D+01      0.351893D+00      0.391534D+00
   xx         0.143796D+02      0.213083D+01      0.237087D+01
   yx         0.822988D-04      0.121954D-04      0.135692D-04
   yy         0.143796D+02      0.213084D+01      0.237088D+01
   zx        -0.422329D-04     -0.625827D-05     -0.696327D-05
   zy        -0.109049D-04     -0.161593D-05     -0.179797D-05
   zz         0.167543D+02      0.248273D+01      0.276241D+01

 ----------------------------------------------------------------------
 1\1\GINC-NODE32\Freq\RB97D3\Aug-CC-pVTZ\H3N1\TINACCI\24-Mar-2022\0\\#P
  Geom=AllCheck Guess=TCheck SCRF=Check GenChk RB97D3/Aug-CC-pVTZ Freq\
 \Title\\0,1\N,14.6477698621,6.8620012347,-3.5306414977\H,14.4451209528
 ,7.1148228172,-4.4950035602\H,14.5116633412,5.85605329,-3.4635840298\H
 ,15.6426448439,7.0258596581,-3.3949089123\\Version=ES64L-G16RevB.01\St
 ate=1-A\HF=-56.5553684\RMSD=2.832e-10\RMSF=3.598e-05\ZeroPoint=0.03363
 7\Thermal=0.0365071\Dipole=0.3280385,-0.2947014,-0.3808452\DipoleDeriv
 =-0.370692,0.0436809,0.0564496,0.043669,-0.3614304,-0.0507046,0.056424
 6,-0.0507009,-0.3876921,0.1966582,-0.0494074,-0.0096908,-0.0488796,0.1
 911546,0.0187902,-0.0183797,0.0271174,-0.0145143,0.1911892,0.012203,-0
 .0493126,0.0040333,-0.0151115,-0.0173544,-0.0499643,-0.0261825,0.19728
 ,-0.0171554,-0.0064765,0.0025538,0.0011773,0.1853873,0.0492688,0.01191
 93,0.049766,0.2049264\Polar=15.1322081,-0.6762375,14.9870776,-0.873843
 9,0.7850114,15.3942094\Quadrupole=0.0373502,0.1765516,-0.2139017,0.648
 3702,0.8377936,-0.7532375\PG=C01 [X(H3N1)]\NImag=0\\0.48313277,0.11424
 807,0.50785815,0.14758444,-0.13276172,0.43898772,-0.04881672,-0.004426
 06,-0.05620171,0.05875044,-0.00210592,-0.05910564,0.07275077,-0.007355
 25,0.06981317,-0.09561142,0.11085299,-0.36874778,0.08839122,-0.1046458
 0,0.38170994,-0.04290622,-0.03174959,-0.01771634,-0.00009540,0.0098493
 7,0.00142294,0.05030612,-0.06881418,-0.40007293,0.04723823,-0.00011823
 ,-0.01148548,-0.00604736,0.06335084,0.41963327,-0.02070877,0.00689267,
 -0.03373787,0.00715685,0.03999234,-0.00521319,0.01188658,-0.03967749,0
 .04037719,-0.39140982,-0.07807243,-0.07366638,-0.00983832,-0.00038820,
 0.00579726,-0.00730449,0.00558157,0.00166533,0.40855264,-0.04332797,-0
 .04867959,0.01277272,0.01189954,0.00077795,-0.00015983,-0.04145063,-0.
 00807486,-0.00720752,0.07287905,0.05597649,-0.03126426,0.01501606,-0.0
 3650206,-0.03934636,-0.00809731,-0.00774897,0.00440682,-0.00151337,-0.
 00142613,0.06620380,-0.00540537,0.04567716\\-0.00005322,-0.00002302,-0
 .00000492,0.00004361,-0.00001442,0.00004776,0.00003650,0.00006192,-0.0
 0000812,-0.00002689,-0.00002448,-0.00003472\\\@


 A CHEMICAL PHYSICIST MAKES PRECISE MEASUREMENTS ON IMPURE COMPOUNDS.
 A THEORETICAL PHYSICAL CHEMIST MAKES IMPRECISE
     MEASUREMENTS ON PURE COMPOUNDS.
 AN EXPERIMENTAL PHYSICAL CHEMIST MAKES IMPRECISE
     MEASUREMENTS ON IMPURE COMPOUNDS.
 Job cpu time:       0 days  0 hours  7 minutes 28.0 seconds.
 Elapsed time:       0 days  0 hours  1 minutes  4.4 seconds.
 File lengths (MBytes):  RWF=     10 Int=      0 D2E=      0 Chk=      2 Scr=      1
 Normal termination of Gaussian 16 at Thu Mar 24 10:27:48 2022.
